<UPF version="2.0.1">
  <PP_INFO>
    Generated using "atomic" code by A. Dal Corso  v.6.1 svn rev. 13369
    Author: ADC
    Generation date: 16Nov2017
    Pseudopotential type: PAW
    Element: Ca
    Functional:  SLA  PW   PBX  PBC

    Suggested minimum cutoff for wavefunctions:  45. Ry
    Suggested minimum cutoff for charge density: 274. Ry
    The Pseudo was generated with a Scalar-Relativistic Calculation
    Local Potential by smoothing AE potential with Bessel fncs, cutoff radius:   1.5000
    Pseudopotential contains additional information for GIPAW reconstruction.

    Valence configuration: 
    nl pn  l   occ       Rcut    Rcut US       E pseu
    3S  1  0  2.00      1.200      1.300    -3.461152
    4S  2  0  2.00      1.200      1.300    -0.276807
    3P  2  1  6.00      1.400      1.600    -2.058536
    4P  3  1  0.00      1.400      1.600    -0.103086
    Generation configuration:
    3S  1  0  2.00      1.200      1.300    -3.461174
    4S  2  0  2.00      1.200      1.300    -0.276813
    3P  2  1  6.00      1.400      1.600    -2.058557
    4P  3  1  0.00      1.400      1.600    -0.103088
    3D  3  2  0.00      1.200      1.700     0.050000
    3D  3  2  0.00      1.200      1.700     1.000000

    Pseudization used: troullier-martins
<PP_INPUTFILE>
 &input
   title='Ca',
   zed=20.,
   rel=1,
   config='[Ar] 4s2 4p0 3d-1',
   iswitch=3,
   dft='PBE'
 /
 &inputp
   lpaw=.true.,
   pseudotype=3,
   file_pseudopw='Ca.pbe-spn-kjpaw_psl.1.0.0.UPF',
   author='ADC',
   lloc=-1,
   rcloc=1.5,
   which_augfun='PSQ',
   rmatch_augfun_nc=.true.,
   nlcc=.true.,
   new_core_ps=.true.,
   rcore=1.0,
   tm=.true.
 /
6
3S  1  0  2.00  0.00  1.20  1.30  0.0
4S  2  0  2.00  0.00  1.20  1.30  0.0
3P  2  1  6.00  0.00  1.40  1.60  0.0
4P  3  1  0.00  0.00  1.40  1.60  0.0
3D  3  2  0.00  0.05  1.20  1.70  0.0
3D  3  2  0.00  1.00  1.20  1.70  0.0
</PP_INPUTFILE>
  </PP_INFO>
  <!--                               -->
  <!-- END OF HUMAN READABLE SECTION -->
  <!--                               -->
  <PP_HEADER generated='Generated using "atomic" code by A. Dal Corso  v.6.1 svn rev. 13369'
             author="ADC"
             date="16Nov2017"
             comment=""
             element="Ca"
             pseudo_type="PAW"
             relativistic="scalar"
             is_ultrasoft="T"
             is_paw="T"
             is_coulomb="F"
             has_so="F"
             has_wfc="T"
             has_gipaw="T"
             paw_as_gipaw="T"
             core_correction="T"
             functional=" SLA  PW   PBX  PBC"
             z_valence="1.000000000000000E+001"
             total_psenergy="-1.333811774074695E+002"
             wfc_cutoff="4.505167859897104E+001"
             rho_cutoff="2.739348565870757E+002"
             l_max="2"
             l_max_rho="4"
             l_local="-1"
             mesh_size="1169"
             number_of_wfc="4"
             number_of_proj="6"/>
  <PP_MESH dx="1.250000000000000E-002" mesh="1169" xmin="-7.000000000000000E+000" rmax="1.000000000000000E+002"
zmesh="2.000000000000000E+001">
    <PP_R type="real" size="1169" columns="4">
 4.559409827772581E-005  4.616760143345111E-005  4.674831837082911E-005  4.733633982806270E-005 
 4.793175768470099E-005  4.853466497599544E-005  4.914515590743694E-005  4.976332586947557E-005 
 5.038927145242552E-005  5.102309046155773E-005  5.166488193238185E-005  5.231474614612092E-005 
 5.297278464538051E-005  5.363910025001484E-005  5.431379707319290E-005  5.499698053766591E-005 
 5.568875739224017E-005  5.638923572845662E-005  5.709852499748037E-005  5.781673602720289E-005 
 5.854398103955872E-005  5.928037366806064E-005  6.002602897555504E-005  6.078106347220073E-005 
 6.154559513367405E-005  6.231974341960247E-005  6.310362929223072E-005  6.389737523532122E-005 
 6.470110527329241E-005  6.551494499059800E-005  6.633902155134958E-005  6.717346371918634E-005 
 6.801840187739470E-005  6.887396804928085E-005  6.974029591879994E-005  7.061752085144408E-005 
 7.150577991539372E-005  7.240521190293478E-005  7.331595735214515E-005  7.423815856885434E-005 
 7.517195964887862E-005  7.611750650053658E-005  7.707494686744751E-005  7.804443035161661E-005 
 7.902610843681085E-005  8.002013451222822E-005  8.102666389646533E-005  8.204585386178631E-005 
 8.307786365869670E-005  8.412285454082706E-005  8.518098979012870E-005  8.625243474238712E-005 
 8.733735681305598E-005  8.843592552341603E-005  8.954831252706349E-005  9.067469163673076E-005 
 9.181523885144535E-005  9.297013238403005E-005  9.413955268894886E-005  9.532368249050383E-005 
 9.652270681138547E-005  9.773681300158336E-005  9.896619076765983E-005  1.002110322023920E-004 
 1.014715318147867E-004  1.027478865604729E-004  1.040402958724765E-004  1.053489616923817E-004 
 1.066740885018854E-004  1.080158833547477E-004  1.093745559091443E-004  1.107503184604258E-004 
 1.121433859742902E-004  1.135539761203703E-004  1.149823093062468E-004  1.164286087118857E-004 
 1.178931003245116E-004  1.193760129739187E-004  1.208775783682252E-004  1.223980311300792E-004 
 1.239376088333179E-004  1.254965520400899E-004  1.270751043384429E-004  1.286735123803850E-004 
 1.302920259204249E-004  1.319308978545961E-004  1.335903842599725E-004  1.352707444346813E-004 
 1.369722409384184E-004  1.386951396334744E-004  1.404397097262756E-004  1.422062238094484E-004 
 1.439949579044121E-004  1.458061915045084E-004  1.476402076186723E-004  1.494972928156530E-004 
 1.513777372687908E-004  1.532818348013571E-004  1.552098829324654E-004  1.571621829235590E-004 
 1.591390398254833E-004  1.611407625261513E-004  1.631676637988074E-004  1.652200603508991E-004 
 1.672982728735636E-004  1.694026260917356E-004  1.715334488148867E-004  1.736910739884027E-004 
 1.758758387456064E-004  1.780880844604365E-004  1.803281568007865E-004  1.825964057825172E-004 
 1.848931858241466E-004  1.872188558022290E-004  1.895737791074304E-004  1.919583237013082E-004 
 1.943728621738065E-004  1.968177718014742E-004  1.992934346064145E-004  2.018002374159779E-004 
 2.043385719232033E-004  2.069088347480218E-004  2.095114274992290E-004  2.121467568372370E-004 
 2.148152345376170E-004  2.175172775554385E-004  2.202533080904203E-004  2.230237536529001E-004 
 2.258290471306333E-004  2.286696268564337E-004  2.315459366766623E-004  2.344584260205805E-004 
 2.374075499705739E-004  2.403937693332593E-004  2.434175507114882E-004  2.464793665772526E-004 
 2.495796953455109E-004  2.527190214489407E-004  2.558978354136326E-004  2.591166339357363E-004 
 2.623759199590692E-004  2.656762027537038E-004  2.690179979955410E-004  2.724018278468862E-004 
 2.758282210380386E-004  2.792977129499050E-004  2.828108456976554E-004  2.863681682154293E-004 
 2.899702363421071E-004  2.936176129081626E-004  2.973108678236047E-004  3.010505781670280E-004 
 3.048373282757819E-004  3.086717098372751E-004  3.125543219814281E-004  3.164857713742873E-004 
 3.204666723128192E-004  3.244976468208944E-004  3.285793247464806E-004  3.327123438600587E-004 
 3.368973499542734E-004  3.411349969448414E-004  3.454259469727266E-004  3.497708705076005E-004 
 3.541704464526063E-004  3.586253622504349E-004  3.631363139907446E-004  3.677040065189218E-004 
 3.723291535462169E-004  3.770124777612638E-004  3.817547109429981E-004  3.865565940750035E-004 
 3.914188774612887E-004  3.963423208435247E-004  4.013276935197580E-004  4.063757744646106E-004 
 4.114873524510015E-004  4.166632261733905E-004  4.219042043725766E-004  4.272111059620673E-004 
 4.325847601560317E-004  4.380260065988714E-004  4.435356954964129E-004  4.491146877487558E-004 
 4.547638550847912E-004  4.604840801984070E-004  4.662762568864163E-004  4.721412901882106E-004 
 4.780800965271752E-004  4.840936038538846E-004  4.901827517910914E-004  4.963484917805506E-004 
 5.025917872316793E-004  5.089136136720934E-004  5.153149589000375E-004  5.217968231387252E-004 
 5.283602191926328E-004  5.350061726057464E-004  5.417357218218076E-004  5.485499183465744E-004 
 5.554498269121153E-004  5.624365256431832E-004  5.695111062256689E-004  5.766746740771811E-004 
 5.839283485197727E-004  5.912732629548309E-004  5.987105650401811E-004  6.062414168694050E-004 
 6.138669951534218E-004  6.215884914043547E-004  6.294071121217000E-004  6.373240789808534E-004 
 6.453406290239936E-004  6.534580148533739E-004  6.616775048270470E-004  6.700003832570414E-004 
 6.784279506100467E-004  6.869615237106071E-004  6.956024359468809E-004  7.043520374789868E-004 
 7.132116954499628E-004  7.221827941993940E-004  7.312667354797112E-004  7.404649386752199E-004 
 7.497788410238858E-004  7.592098978418972E-004  7.687595827510716E-004  7.784293879091045E-004 
 7.882208242427243E-004  7.981354216837812E-004  8.081747294082937E-004  8.183403160785214E-004 
 8.286337700880627E-004  8.390566998100479E-004  8.496107338484542E-004  8.602975212925691E-004 
 8.711187319746757E-004  8.820760567309581E-004  8.931712076657017E-004  9.044059184188157E-004 
 9.157819444367089E-004  9.273010632465942E-004  9.389650747342205E-004  9.507758014251127E-004 
 9.627350887693465E-004  9.748448054298997E-004  9.871068435746391E-004  9.995231191719715E-004 
 1.012095572290220E-003  1.024826167400763E-003  1.037716893684987E-003  1.050769765345102E-003 
 1.063986821918859E-003  1.077370128598239E-003  1.090921776552139E-003  1.104643883253122E-003 
 1.118538592808280E-003  1.132608076294248E-003  1.146854532096446E-003  1.161280186252579E-003 
 1.175887292800455E-003  1.190678134130194E-003  1.205655021340844E-003  1.220820294601502E-003 
 1.236176323516970E-003  1.251725507498007E-003  1.267470276136247E-003  1.283413089583822E-003 
 1.299556438937767E-003  1.315902846629266E-003  1.332454866817774E-003  1.349215085790124E-003 
 1.366186122364629E-003  1.383370628300279E-003  1.400771288711091E-003  1.418390822485655E-003 
 1.436231982711972E-003  1.454297557107624E-003  1.472590368455364E-003  1.491113275044185E-003 
 1.509869171115925E-003  1.528860987317505E-003  1.548091691158845E-003  1.567564287476544E-003 
 1.587281818903398E-003  1.607247366343803E-003  1.627464049455172E-003  1.647935027135368E-003 
 1.668663498016304E-003  1.689652700963728E-003  1.710905915583302E-003  1.732426462733051E-003 
 1.754217705042252E-003  1.776283047436848E-003  1.798625937671483E-003  1.821249866868212E-003 
 1.844158370062001E-003  1.867355026753081E-003  1.890843461466254E-003  1.914627344317233E-003 
 1.938710391586101E-003  1.963096366297991E-003  1.987789078811066E-003  2.012792387411893E-003 
 2.038110198918311E-003  2.063746469289877E-003  2.089705204245996E-003  2.115990459891816E-003 
 2.142606343352009E-003  2.169557013412519E-003  2.196846681170371E-003  2.224479610691676E-003 
 2.252460119677891E-003  2.280792580140470E-003  2.309481419084006E-003  2.338531119197949E-003 
 2.367946219557046E-003  2.397731316330574E-003  2.427891063500499E-003  2.458430173588679E-003 
 2.489353418393197E-003  2.520665629733969E-003  2.552371700207721E-003  2.584476583952471E-003 
 2.616985297421619E-003  2.649902920167790E-003  2.683234595636507E-003  2.716985531969875E-003 
 2.751161002820363E-003  2.785766348174820E-003  2.820806975188868E-003  2.856288359031765E-003 
 2.892216043741924E-003  2.928595643093178E-003  2.965432841471936E-003  3.002733394765397E-003 
 3.040503131260899E-003  3.078747952556612E-003  3.117473834483673E-003  3.156686828039919E-003 
 3.196393060335379E-003  3.236598735549628E-003  3.277310135901218E-003  3.318533622629282E-003 
 3.360275636987488E-003  3.402542701250510E-003  3.445341419733129E-003  3.488678479822183E-003 
 3.532560653021481E-003  3.576994796009861E-003  3.621987851712573E-003  3.667546850386107E-003 
 3.713678910716695E-003  3.760391240932622E-003  3.807691139930516E-003  3.855585998415836E-003 
 3.904083300057658E-003  3.953190622658034E-003  4.002915639336030E-003  4.053266119726662E-003 
 4.104249931194940E-003  4.155875040065128E-003  4.208149512865520E-003  4.261081517588844E-003 
 4.314679324968524E-003  4.368951309771019E-003  4.423905952104366E-003  4.479551838743235E-003 
 4.535897664470627E-003  4.592952233436445E-003  4.650724460533174E-003  4.709223372788835E-003 
 4.768458110777482E-003  4.828437930047443E-003  4.889172202567502E-003  4.950670418191315E-003 
 5.012942186140188E-003  5.075997236504554E-003  5.139845421764322E-003  5.204496718328332E-003 
 5.269961228093216E-003  5.336249180021810E-003  5.403370931741465E-003  5.471336971162449E-003 
 5.540157918116699E-003  5.609844526017187E-003  5.680407683538188E-003  5.751858416316621E-003 
 5.824207888674851E-003  5.897467405365129E-003  5.971648413335981E-003  6.046762503520835E-003 
 6.122821412649098E-003  6.199837025080064E-003  6.277821374659866E-003  6.356786646601780E-003 
 6.436745179390212E-003  6.517709466708585E-003  6.599692159391514E-003  6.682706067401525E-003 
 6.766764161830635E-003  6.851879576927124E-003  6.938065612147765E-003  7.025335734235909E-003 
 7.113703579325684E-003  7.203182955072664E-003  7.293787842811371E-003  7.385532399739843E-003 
 7.478430961131757E-003  7.572498042576334E-003  7.667748342246423E-003  7.764196743195151E-003 
 7.861858315681383E-003  7.960748319524518E-003  8.060882206488844E-003  8.162275622697921E-003 
 8.264944411079328E-003  8.368904613840128E-003  8.474172474973510E-003  8.580764442796943E-003 
 8.688697172522257E-003  8.797987528858076E-003  8.908652588644924E-003  9.020709643523544E-003 
 9.134176202636738E-003  9.249069995365214E-003  9.365408974097853E-003  9.483211317036767E-003 
 9.602495431037712E-003  9.723279954486182E-003  9.845583760209702E-003  9.969425958426759E-003 
 1.009482589973277E-002  1.022180317812370E-002  1.035037763405764E-002  1.048056935755489E-002 
 1.061239869133715E-002  1.074588623400603E-002  1.088105284326165E-002  1.101791963916170E-002 
 1.115650800742149E-002  1.129683960275554E-002  1.143893635226113E-002  1.158282045884445E-002 
 1.172851440468989E-002  1.187604095477291E-002  1.202542316041711E-002  1.217668436289604E-002 
 1.232984819708033E-002  1.248493859513069E-002  1.264197979023732E-002  1.280099632040651E-002 
 1.296201303229458E-002  1.312505508509037E-002  1.329014795444634E-002  1.345731743645919E-002 
 1.362658965170063E-002  1.379799104929866E-002  1.397154841107037E-002  1.414728885570665E-002 
 1.432523984300950E-002  1.450542917818277E-002  1.468788501617665E-002  1.487263586608704E-002 
 1.505971059561012E-002  1.524913843555296E-002  1.544094898440100E-002  1.563517221294269E-002 
 1.583183846895267E-002  1.603097848193354E-002  1.623262336791749E-002  1.643680463432821E-002 
 1.664355418490398E-002  1.685290432468272E-002  1.706488776504970E-002  1.727953762884873E-002 
 1.749688745555777E-002  1.771697120652944E-002  1.793982327029759E-002  1.816547846795057E-002 
 1.839397205857212E-002  1.862533974475065E-002  1.885961767815785E-002  1.909684246519746E-002 
 1.933705117272507E-002  1.958028133383995E-002  1.982657095374965E-002  2.007595851570834E-002 
 2.032848298702997E-002  2.058418382517694E-002  2.084310098392542E-002  2.110527491960828E-002 
 2.137074659743634E-002  2.163955749789937E-002  2.191174962324748E-002  2.218736550405399E-002 
 2.246644820586109E-002  2.274904133590868E-002  2.303518904994830E-002  2.332493605914243E-002 
 2.361832763705073E-002  2.391540962670421E-002  2.421622844776813E-002  2.452083110379532E-002 
 2.482926518957049E-002  2.514157889854705E-002  2.545782103037746E-002  2.577804099853822E-002 
 2.610228883805082E-002  2.643061521329989E-002  2.676307142594951E-002  2.709970942295936E-002 
 2.744058180470133E-002  2.778574183317858E-002  2.813524344034781E-002  2.848914123654615E-002 
 2.884749051902434E-002  2.921034728058680E-002  2.957776821834077E-002  2.994981074255529E-002 
 3.032653298563167E-002  3.070799381118689E-002  3.109425282325102E-002  3.148537037558052E-002 
 3.188140758108869E-002  3.228242632139460E-002  3.268848925649237E-002  3.309965983454171E-002 
 3.351600230178198E-002  3.393758171257074E-002  3.436446393954861E-002  3.479671568393210E-002 
 3.523440448593568E-002  3.567759873532515E-002  3.612636768210363E-002  3.658078144733209E-002 
 3.704091103408590E-002  3.750682833854910E-002  3.797860616124844E-002  3.845631821842856E-002 
 3.894003915357024E-002  3.942984454905384E-002  3.992581093796886E-002  4.042801581607264E-002 
 4.093653765389912E-002  4.145145590902002E-002  4.197285103846037E-002  4.250080451126993E-002 
 4.303539882125292E-002  4.357671749985793E-002  4.412484512922978E-002  4.467986735542579E-002 
 4.524187090179799E-002  4.581094358254391E-002  4.638717431642768E-002  4.697065314067379E-002 
 4.756147122503571E-002  4.815972088604110E-002  4.876549560141666E-002  4.937889002469410E-002 
 5.000000000000000E-002  5.062892257703173E-002  5.126575602622147E-002  5.191059985409128E-002 
 5.256355481880124E-002  5.322472294589296E-002  5.389420754423159E-002  5.457211322214760E-002 
 5.525854590378241E-002  5.595361284563907E-002  5.665742265334132E-002  5.737008529860362E-002 
 5.809171213641418E-002  5.882241592243456E-002  5.956231083061795E-002  6.031151247104903E-002 
 6.107013790800851E-002  6.183830567826426E-002  6.261613580959326E-002  6.340374983953602E-002 
 6.420127083438706E-002  6.500882340842457E-002  6.582653374338110E-002  6.665452960816018E-002 
 6.749294037880020E-002  6.834189705868982E-002  6.920153229903758E-002  7.007198041959870E-002 
 7.095337742966290E-002  7.184586104930626E-002  7.274957073091007E-002  7.366464768095080E-002 
 7.459123488206354E-002  7.552947711538367E-002  7.647952098316899E-002  7.744151493170666E-002 
 7.841560927450845E-002  7.940195621579720E-002  8.040070987428918E-002  8.141202630727555E-002 
 8.243606353500640E-002  8.347298156538216E-002  8.452294241895460E-002  8.558611015424326E-002 
 8.666265089336982E-002  8.775273284801492E-002  8.885652634570193E-002  8.997420385641046E-002 
 9.110594001952550E-002  9.225191167112505E-002  9.341229787161112E-002  9.458727993368851E-002 
 9.577704145069484E-002  9.698176832528775E-002  9.820164879849243E-002  9.943687347911459E-002 
 1.006876353735238E-001  1.019541299158108E-001  1.032365549983244E-001  1.045351110025929E-001 
 1.058500008306337E-001  1.071814299366580E-001  1.085296063591722E-001  1.098947407534852E-001 
 1.112770464246235E-001  1.126767393606604E-001  1.140940382664652E-001  1.155291645978752E-001 
 1.169823425962996E-001  1.184537993237571E-001  1.199437646983549E-001  1.214524715302144E-001 
 1.229801555578475E-001  1.245270554849916E-001  1.260934130179075E-001  1.276794729031464E-001 
 1.292854829657923E-001  1.309116941481851E-001  1.325583605491304E-001  1.342257394636036E-001 
 1.359140914229522E-001  1.376236802356054E-001  1.393547730282926E-001  1.411076402877850E-001 
 1.428825559031583E-001  1.446797972085881E-001  1.464996450266852E-001  1.483423837123734E-001 
 1.502083011973216E-001  1.520976890349333E-001  1.540108424459015E-001  1.559480603643398E-001 
 1.579096454844884E-001  1.598959043080137E-001  1.619071471918982E-001  1.639436883969337E-001 
 1.660058461368276E-001  1.680939426279215E-001  1.702083041395409E-001  1.723492610449739E-001 
 1.745171478730921E-001  1.767123033606237E-001  1.789350705050790E-001  1.811857966183471E-001 
 1.834648333809623E-001  1.857725368970552E-001  1.881092677499957E-001  1.904753910587331E-001 
 1.928712765348486E-001  1.952972985403227E-001  1.977538361460289E-001  2.002412731909665E-001 
 2.027599983422338E-001  2.053104051557605E-001  2.078928921378005E-001  2.105078628071980E-001 
 2.131557257584411E-001  2.158368947255022E-001  2.185517886464878E-001  2.213008317290969E-001 
 2.240844535169032E-001  2.269030889564754E-001  2.297571784653345E-001  2.326471680007734E-001 
 2.355735091295372E-001  2.385366590983801E-001  2.415370809055142E-001  2.445752433729503E-001 
 2.476516212197556E-001  2.507666951362281E-001  2.539209518590041E-001  2.571148842471146E-001 
 2.603489913589925E-001  2.636237785304545E-001  2.669397574536590E-001  2.702974462570583E-001 
 2.736973695863603E-001  2.771400586865012E-001  2.806260514846577E-001  2.841558926742974E-001 
 2.877301338002866E-001  2.913493333450740E-001  2.950140568159509E-001  2.987248768334161E-001 
 3.024823732206475E-001  3.062871330940993E-001  3.101397509552436E-001  3.140408287834583E-001 
 3.179909761300915E-001  3.219908102137032E-001  3.260409560165056E-001  3.301420463820217E-001 
 3.342947221139636E-001  3.384996320763637E-001  3.427574332949591E-001  3.470687910598518E-001 
 3.514343790294651E-001  3.558548793357998E-001  3.603309826910233E-001  3.648633884953918E-001 
 3.694528049465325E-001  3.740999491501043E-001  3.788055472318425E-001  3.835703344510214E-001 
 3.883950553153389E-001  3.932804636972446E-001  3.982273229517390E-001  4.032364060356438E-001 
 4.083084956283823E-001  4.134443842542737E-001  4.186448744063632E-001  4.239107786718191E-001 
 4.292429198588948E-001  4.346421311255001E-001  4.401092561093806E-001  4.456451490599369E-001 
 4.512506749717066E-001  4.569267097195164E-001  4.626741401953445E-001  4.684938644468968E-001 
 4.743867918179263E-001  4.803538430903256E-001  4.863959506279943E-001  4.925140585225291E-001 
 4.987091227407364E-001  5.049821112740027E-001  5.113340042895504E-001  5.177657942835847E-001 
 5.242784862363785E-001  5.308730977693006E-001  5.375506593038177E-001  5.443122142225075E-001 
 5.511588190320802E-001  5.580915435284682E-001  5.651114709639795E-001  5.722196982165560E-001 
 5.794173359611701E-001  5.867055088433607E-001  5.940853556549698E-001  6.015580295120769E-001 
 6.091246980351737E-001  6.167865435316133E-001  6.245447631803407E-001  6.324005692189612E-001 
 6.403551891331520E-001  6.484098658484567E-001  6.565658579245015E-001  6.648244397516394E-001 
 6.731869017500854E-001  6.816545505715382E-001  6.902287093033548E-001  6.989107176752823E-001 
 7.077019322687904E-001  7.166037267290475E-001  7.256174919795463E-001  7.347446364394471E-001 
 7.439865862436424E-001  7.533447854655896E-001  7.628206963429590E-001  7.724157995061013E-001 
 7.821315942094086E-001  7.919695985655716E-001  8.019313497827838E-001  8.120184044049429E-001 
 8.222323385548531E-001  8.325747481805073E-001  8.430472493044524E-001  8.536514782762931E-001 
 8.643890920283832E-001  8.752617683347145E-001  8.862712060730822E-001  8.974191254905328E-001 
 9.087072684721533E-001  9.201373988132536E-001  9.317113024949508E-001  9.434307879632442E-001 
 9.552976864115834E-001  9.673138520669908E-001  9.794811624798010E-001  9.918015188170166E-001 
 1.004276846159383E+000  1.016909093802181E+000  1.029700235559802E+000  1.042652270074172E+000 
 1.055767221127031E+000  1.069047137956167E+000  1.082494095575604E+000  1.096110195099824E+000 
 1.109897564072083E+000  1.123858356796831E+000  1.137994754676336E+000  1.152308966551530E+000 
 1.166803229047136E+000  1.181479806921163E+000  1.196340993418758E+000  1.211389110630549E+000 
 1.226626509855469E+000  1.242055571968142E+000  1.257678707790920E+000  1.273498358470555E+000 
 1.289516995859653E+000  1.305737122902900E+000  1.322161274028140E+000  1.338792015542408E+000 
 1.355631946032895E+000  1.372683696773005E+000  1.389949932133485E+000  1.407433349998733E+000 
 1.425136682188366E+000  1.443062694884052E+000  1.461214189061747E+000  1.479594000929349E+000 
 1.498205002369851E+000  1.517050101390098E+000  1.536132242575147E+000  1.555454407548383E+000 
 1.575019615437398E+000  1.594830923345725E+000  1.614891426830536E+000  1.635204260386309E+000 
 1.655772597934616E+000  1.676599653320048E+000  1.697688680812378E+000  1.719042975615061E+000 
 1.740665874380102E+000  1.762560755729427E+000  1.784731040782795E+000  1.807180193692347E+000 
 1.829911722183902E+000  1.852929178105030E+000  1.876236157980050E+000  1.899836303571990E+000 
 1.923733302451607E+000  1.947930888573601E+000  1.972432842860028E+000  1.997242993791097E+000 
 2.022365218003372E+000  2.047803440895490E+000  2.073561637241541E+000  2.099643831812100E+000 
 2.126054100003139E+000  2.152796568472798E+000  2.179875415786175E+000  2.207294873068264E+000 
 2.235059224665043E+000  2.263172808812938E+000  2.291640018316676E+000  2.320465301235649E+000 
 2.349653161578968E+000  2.379208160009185E+000  2.409134914554941E+000  2.439438101332523E+000 
 2.470122455276509E+000  2.501192770879641E+000  2.532653902941933E+000  2.564510767329285E+000 
 2.596768341741575E+000  2.629431666490423E+000  2.662505845286785E+000  2.695996046038379E+000 
 2.729907501657212E+000  2.764245510877224E+000  2.799015439082208E+000  2.834222719144194E+000 
 2.869872852272312E+000  2.905971408872399E+000  2.942524029417373E+000  2.979536425328550E+000 
 3.017014379868103E+000  3.054963749042669E+000  3.093390462518394E+000  3.132300524547446E+000 
 3.171700014906167E+000  3.211595089845098E+000  3.251991983050851E+000  3.292897006620185E+000 
 3.334316552046261E+000  3.376257091217307E+000  3.418725177427911E+000  3.461727446402932E+000 
 3.505270617334393E+000  3.549361493931347E+000  3.594006965482953E+000  3.639214007934987E+000 
 3.684989684979792E+000  3.731341149160046E+000  3.778275642986334E+000  3.825800500068794E+000 
 3.873923146263048E+000  3.922651100830458E+000  3.971991977613067E+000  4.021953486223266E+000 
 4.072543433248407E+000  4.123769723470656E+000  4.175640361102063E+000  4.228163451035300E+000 
 4.281347200110033E+000  4.335199918395245E+000  4.389730020487746E+000  4.444946026826917E+000 
 4.500856565026091E+000  4.557470371220623E+000  4.614796291432894E+000  4.672843282954587E+000 
 4.731620415746208E+000  4.791136873854343E+000  4.851401956846672E+000  4.912425081265003E+000 
 4.974215782096698E+000  5.036783714264456E+000  5.100138654134985E+000  5.164290501046542E+000 
 5.229249278855711E+000  5.295025137503702E+000  5.361628354602228E+000  5.429069337039480E+000 
 5.497358622606180E+000  5.566506881642118E+000  5.636524918703467E+000  5.707423674250952E+000 
 5.779214226359383E+000  5.851907792448595E+000  5.925515731036167E+000  6.000049543512278E+000 
 6.075520875936748E+000  6.151941520858827E+000  6.229323419159773E+000  6.307678661918609E+000 
 6.387019492301452E+000  6.467358307474449E+000  6.548707660540930E+000  6.631080262502833E+000 
 6.714488984246776E+000  6.798946858555256E+000  6.884467082142936E+000  6.971063017718758E+000 
 7.058748196073850E+000  7.147536318195701E+000  7.237441257409057E+000  7.328477061543559E+000 
 7.420657955128830E+000  7.513998341617049E+000  7.608512805633481E+000  7.704216115255446E+000 
 7.801123224319755E+000  7.899249274759373E+000  7.998609598969334E+000  8.099219722202417E+000 
 8.201095364995100E+000  8.304252445623806E+000  8.408707082592272E+000  8.514475597150057E+000 
 8.621574515842717E+000  8.730020573094222E+000  8.839830713821623E+000  8.951022096082834E+000 
 9.063612093757568E+000  9.177618299261999E+000  9.293058526297717E+000  9.409950812635024E+000 
 9.528313422931500E+000  9.648164851585829E+000  9.769523825627548E+000  9.892409307643288E+000 
 1.001684049873959E+001  1.014283684154324E+001  1.027041802323917E+001  1.039960397864653E+001 
 1.053041489333374E+001  1.066287120677230E+001  1.079699361553071E+001  1.093280307650821E+001 
 1.107032081020936E+001  1.120956830405986E+001  1.135056731576391E+001  1.149333987670394E+001 
 1.163790829538311E+001  1.178429516091093E+001  1.193252334653299E+001  1.208261601320484E+001 
 1.223459661321102E+001  1.238848889382952E+001  1.254431690104223E+001  1.270210498329236E+001 
 1.286187779528875E+001  1.302366030185834E+001  1.318747778184696E+001  1.335335583206911E+001 
 1.352132037130765E+001  1.369139764436353E+001  1.386361422615670E+001  1.403799702587848E+001 
 1.421457329119605E+001  1.439337061251017E+001  1.457441692726601E+001  1.475774052431862E+001 
 1.494337004835303E+001  1.513133450435999E+001  1.532166326216823E+001  1.551438606103332E+001 
 1.570953301428471E+001  1.590713461403090E+001  1.610722173592383E+001  1.630982564398342E+001 
 1.651497799548245E+001  1.672271084589325E+001  1.693305665389638E+001  1.714604828645222E+001 
 1.736171902393675E+001  1.758010256534144E+001  1.780123303353896E+001  1.802514498061489E+001 
 1.825187339326644E+001  1.848145369826946E+001  1.871392176801361E+001  1.894931392610778E+001 
 1.918766695305561E+001  1.942901809200244E+001  1.967340505455482E+001  1.992086602667280E+001 
 2.017143967463675E+001  2.042516515108903E+001  2.068208210115144E+001  2.094223066862022E+001 
 2.120565150223823E+001  2.147238576204670E+001  2.174247512581643E+001  2.201596179555995E+001 
 2.229288850412588E+001  2.257329852187578E+001  2.285723566344545E+001  2.314474429459098E+001 
 2.343586933912085E+001  2.373065628591565E+001  2.402915119603547E+001  2.433140070991736E+001 
 2.463745205466284E+001  2.494735305141710E+001  2.526115212284147E+001  2.557889830067921E+001 
 2.590064123341710E+001  2.622643119404302E+001  2.655631908790106E+001  2.689035646064587E+001 
 2.722859550629647E+001  2.757108907539194E+001  2.791789068324930E+001  2.826905451832526E+001 
 2.862463545068359E+001  2.898468904056832E+001  2.934927154708544E+001  2.971843993699341E+001 
 3.009225189360411E+001  3.047076582579641E+001  3.085404087714218E+001  3.124213693514805E+001 
 3.163511464061271E+001  3.203303539710204E+001  3.243596138054395E+001  3.284395554894299E+001 
 3.325708165221809E+001  3.367540424216347E+001  3.409898868253477E+001  3.452790115926272E+001 
 3.496220869079429E+001  3.540197913856497E+001  3.584728121760200E+001  3.629818450726107E+001 
 3.675475946209870E+001  3.721707742288035E+001  3.768521062772807E+001  3.815923222340759E+001 
 3.863921627675749E+001  3.912523778626283E+001  3.961737269377311E+001  4.011569789636895E+001 
 4.062029125837720E+001  4.113123162353712E+001  4.164859882732044E+001  4.217247370940517E+001 
 4.270293812630758E+001  4.324007496417209E+001  4.378396815172230E+001  4.433470267337546E+001 
 4.489236458252092E+001  4.545704101496661E+001  4.602882020255405E+001  4.660779148694441E+001 