<UPF version="2.0.1">
  <PP_INFO>
    Generated using "atomic" code by A. Dal Corso  v.6.1 svn rev. 13369
    Author: ADC
    Generation date: 16Nov2017
    Pseudopotential type: PAW
    Element: Cd
    Functional:  SLA  PW   PBX  PBC

    Suggested minimum cutoff for wavefunctions:  65. Ry
    Suggested minimum cutoff for charge density: 532. Ry
    The Pseudo was generated with a Scalar-Relativistic Calculation
    Local Potential by smoothing AE potential with Bessel fncs, cutoff radius:   1.3000
    Pseudopotential contains additional information for GIPAW reconstruction.

    Valence configuration: 
    nl pn  l   occ       Rcut    Rcut US       E pseu
    4S  1  0  2.00      0.800      1.450    -7.784722
    5S  2  0  2.00      0.800      1.450    -0.415934
    4P  2  1  6.00      0.800      1.200    -4.921945
    4D  3  2 10.00      1.000      1.700    -0.862316
    Generation configuration:
    4S  1  0  2.00      0.800      1.450    -7.784789
    5S  2  0  2.00      0.800      1.450    -0.415946
    4P  2  1  6.00      0.800      1.200    -4.921988
    5P  2  1  0.00      0.800      1.200    -3.000000
    4D  3  2 10.00      1.000      1.700    -0.862352
    4D  3  2  0.00      1.000      1.700     0.100000

    Pseudization used: troullier-martins
<PP_INPUTFILE>
 &input
   title='Cd',
   zed=48.,
   rel=1,
   config='[Kr] 5s2 5p0 4d10',
   iswitch=3,
   dft='PBE'
 /
 &inputp
   lpaw=.true.,
   pseudotype=3,
   file_pseudopw='Cd.pbe-spn-kjpaw_psl.1.0.0.UPF',
   author='ADC',
   lloc=-1,
   rcloc=1.3,
   which_augfun='PSQ',
   rmatch_augfun_nc=.true.,
   nlcc=.true.,
   new_core_ps=.true.,
   rcore=1.0,
   tm=.true.
 /
6
4S  1  0  2.00  0.00  0.80  1.45  0.0
5S  2  0  2.00  0.00  0.80  1.45  0.0
4P  2  1  6.00  0.00  0.80  1.20  0.0
5P  2  1  0.00 -3.00  0.80  1.20  0.0
4D  3  2 10.00  0.00  1.00  1.70  0.0
4D  3  2  0.00  0.10  1.00  1.70  0.0
</PP_INPUTFILE>
  </PP_INFO>
  <!--                               -->
  <!-- END OF HUMAN READABLE SECTION -->
  <!--                               -->
  <PP_HEADER generated='Generated using "atomic" code by A. Dal Corso  v.6.1 svn rev. 13369'
             author="ADC"
             date="16Nov2017"
             comment=""
             element="Cd"
             pseudo_type="PAW"
             relativistic="scalar"
             is_ultrasoft="T"
             is_paw="T"
             is_coulomb="F"
             has_so="F"
             has_wfc="T"
             has_gipaw="T"
             paw_as_gipaw="T"
             core_correction="T"
             functional=" SLA  PW   PBX  PBC"
             z_valence="2.000000000000000E+001"
             total_psenergy="-6.061098270844099E+002"
             wfc_cutoff="6.499820930836353E+001"
             rho_cutoff="5.318095386207599E+002"
             l_max="2"
             l_max_rho="4"
             l_local="-1"
             mesh_size="1239"
             number_of_wfc="4"
             number_of_proj="6"/>
  <PP_MESH dx="1.250000000000000E-002" mesh="1239" xmin="-7.000000000000000E+000" rmax="1.000000000000000E+002"
zmesh="4.800000000000000E+001">
    <PP_R type="real" size="1239" columns="4">
 1.899754094905242E-005  1.923650059727130E-005  1.947846598784546E-005  1.972347492835946E-005 
 1.997156570195875E-005  2.022277707333144E-005  2.047714829476539E-005  2.073471911228149E-005 
 2.099552977184397E-005  2.125962102564906E-005  2.152703413849244E-005  2.179781089421705E-005 
 2.207199360224188E-005  2.234962510417285E-005  2.263074878049704E-005  2.291540855736080E-005 
 2.320364891343340E-005  2.349551488685692E-005  2.379105208228349E-005  2.409030667800120E-005 
 2.439332543314947E-005  2.470015569502527E-005  2.501084540648127E-005  2.532544311341697E-005 
 2.564399797236419E-005  2.596655975816770E-005  2.629317887176280E-005  2.662390634805051E-005 
 2.695879386387183E-005  2.729789374608250E-005  2.764125897972899E-005  2.798894321632764E-005 
 2.834100078224779E-005  2.869748668720036E-005  2.905845663283331E-005  2.942396702143503E-005 
 2.979407496474738E-005  3.016883829288949E-005  3.054831556339382E-005  3.093256607035598E-005 
 3.132164985369942E-005  3.171562770855691E-005  3.211456119476980E-005  3.251851264650692E-005 
 3.292754518200452E-005  3.334172271342842E-005  3.376110995686056E-005  3.418577244241096E-005 
 3.461577652445696E-005  3.505118939201128E-005  3.549207907922029E-005  3.593851447599463E-005 
 3.639056533877333E-005  3.684830230142335E-005  3.731179688627645E-005  3.778112151530448E-005 
 3.825634952143557E-005  3.873755516001252E-005  3.922481362039536E-005  3.971820103770993E-005 
 4.021779450474394E-005  4.072367208399306E-005  4.123591281985826E-005  4.175459675099665E-005 
 4.227980492282779E-005  4.281161940019706E-005  4.335012328019853E-005  4.389540070515904E-005 
 4.444753687578559E-005  4.500661806447822E-005  4.557273162881010E-005  4.614596602517743E-005 
 4.672641082262090E-005  4.731415671682098E-005  4.790929554426950E-005  4.851192029661904E-005 
 4.912212513521319E-005  4.974000540579945E-005  5.036565765342716E-005  5.099917963753298E-005 
 5.164067034721580E-005  5.229023001670414E-005  5.294796014101788E-005  5.361396349182708E-005 
 5.428834413351038E-005  5.497120743941503E-005  5.566266010832189E-005  5.636281018111722E-005 
 5.707176705767434E-005  5.778964151394768E-005  5.851654571928152E-005  5.925259325393682E-005 
 5.999789912683839E-005  6.075257979354516E-005  6.151675317444680E-005  6.229053867318875E-005 
 6.307405719532949E-005  6.386743116723214E-005  6.467078455519393E-005  6.548424288481626E-005 
 6.630793326061806E-005  6.714198438589638E-005  6.798652658283643E-005  6.884169181287462E-005 
 6.970761369731817E-005  7.058442753822315E-005  7.147227033953614E-005  7.237128082850112E-005 
 7.328159947733601E-005  7.420336852518187E-005  7.513673200032772E-005  7.608183574271549E-005 
 7.703882742672775E-005  7.800785658426209E-005  7.898907462809599E-005  7.998263487554507E-005 
 8.098869257241938E-005  8.200740491728090E-005  8.303893108600605E-005  8.408343225665747E-005 
 8.514107163466805E-005  8.621201447834243E-005  8.729642812467873E-005  8.839448201551543E-005 
 8.950634772400708E-005  9.063219898143269E-005  9.177221170434179E-005  9.292656402204170E-005 
 9.409543630443055E-005  9.527901119018069E-005  9.647747361527595E-005  9.769101084190856E-005 
 9.891981248773912E-005  1.001640705555247E-004  1.014239794631201E-004  1.026997360738552E-004 
 1.039915397272962E-004  1.052995922703920E-004  1.066240980890136E-004  1.079652641398901E-004 
 1.093232999829455E-004  1.106984178140432E-004  1.120908324981421E-004  1.135007616028693E-004 
 1.149284254325161E-004  1.163740470624604E-004  1.178378523740231E-004  1.193200700897622E-004 
 1.208209318092113E-004  1.223406720450678E-004  1.238795282598353E-004  1.254377409029283E-004 
 1.270155534482425E-004  1.286132124321979E-004  1.302309674922617E-004  1.318690714059531E-004 
 1.335277801303413E-004  1.352073528420393E-004  1.369080519777003E-004  1.386301432750245E-004 
 1.403738958142806E-004  1.421395820603506E-004  1.439274779053028E-004  1.457378627115002E-004 
 1.475710193552526E-004  1.494272342710146E-004  1.513067974961436E-004  1.532100027162174E-004 
 1.551371473109237E-004  1.570885324005266E-004  1.590644628929159E-004  1.610652475312515E-004 
 1.630911989422036E-004  1.651426336848020E-004  1.672198722998992E-004  1.693232393602544E-004 
 1.714530635212506E-004  1.736096775722460E-004  1.757934184885736E-004  1.780046274841947E-004 
 1.802436500650132E-004  1.825108360828631E-004  1.848065397901720E-004  1.871311198953149E-004 
 1.894849396186630E-004  1.918683667493363E-004  1.942817737026735E-004  1.967255375784211E-004 
 1.992000402196563E-004  2.017056682724519E-004  2.042428132462881E-004  2.068118715752294E-004 
 2.094132446798664E-004  2.120473390300389E-004  2.147145662083489E-004  2.174153429744688E-004 
 2.201500913302636E-004  2.229192385857277E-004  2.257232174257531E-004  2.285624659777393E-004 
 2.314374278800480E-004  2.343485523513264E-004  2.372962942606954E-004  2.402811141988255E-004 
 2.433034785499053E-004  2.463638595645129E-004  2.494627354334088E-004  2.526005903622520E-004 
 2.557779146472591E-004  2.589952047518144E-004  2.622529633840416E-004  2.655516995753556E-004 
 2.688919287599973E-004  2.722741728555725E-004  2.756989603446029E-004  2.791668263571006E-004 
 2.826783127541861E-004  2.862339682127530E-004  2.898343483112004E-004  2.934800156162445E-004 
 2.971715397708178E-004  3.009094975830808E-004  3.046944731165463E-004  3.085270577813417E-004 
 3.124078504266191E-004  3.163374574341239E-004  3.203164928129465E-004  3.243455782954602E-004 
 3.284253434344684E-004  3.325564257015755E-004  3.367394705867891E-004  3.409751316993839E-004 
 3.452640708700261E-004  3.496069582541866E-004  3.540044724368559E-004  3.584573005385705E-004 
 3.629661383227816E-004  3.675316903045659E-004  3.721546698607090E-004  3.768357993411732E-004 
 3.815758101819620E-004  3.863754430194143E-004  3.912354478059252E-004  3.961565839271303E-004 
 4.011396203205610E-004  4.061853355957915E-004  4.112945181560996E-004  4.164679663216548E-004 
 4.217064884542582E-004  4.270109030836512E-004  4.323820390354113E-004  4.378207355604590E-004 
 4.433278424661911E-004  4.489042202492661E-004  4.545507402300578E-004  4.602682846888009E-004 
 4.660577470034500E-004  4.719200317892702E-004  4.778560550401860E-004  4.838667442719078E-004 
 4.899530386668564E-004  4.961158892209141E-004  5.023562588920182E-004  5.086751227506257E-004 
 5.150734681320708E-004  5.215522947908364E-004  5.281126150567697E-004  5.347554539932590E-004 
 5.414818495574031E-004  5.482928527621940E-004  5.551895278407393E-004  5.621729524125518E-004 
 5.692442176519285E-004  5.764044284584496E-004  5.836547036296213E-004  5.909961760356896E-004 
 5.984299927966548E-004  6.059573154615100E-004  6.135793201897352E-004  6.212971979350773E-004 
 6.291121546316354E-004  6.370254113822936E-004  6.450382046495186E-004  6.531517864485602E-004 
 6.613674245430824E-004  6.696864026432514E-004  6.781100206063214E-004  6.866395946397368E-004 
 6.952764575067933E-004  7.040219587348866E-004  7.128774648263756E-004  7.218443594721047E-004 
 7.309240437676050E-004  7.401179364320201E-004  7.494274740297847E-004  7.588541111950882E-004 
 7.683993208591669E-004  7.780645944804504E-004  7.878514422776059E-004  7.977613934655138E-004 
 8.077959964942085E-004  8.179568192908295E-004  8.282454495046107E-004  8.386634947549552E-004 
 8.492125828826297E-004  8.598943622041156E-004  8.707105017691650E-004  8.816626916215899E-004 
 8.927526430633372E-004  9.039820889218828E-004  9.153527838209880E-004  9.268665044548651E-004 
 9.385250498657880E-004  9.503302417251959E-004  9.622839246183359E-004  9.743879663324787E-004 
 9.866442581487694E-004  9.990547151377390E-004  1.011621276458541E-003  1.024345905661950E-003 
 1.037230590997166E-003  1.050277345722487E-003  1.063488208419884E-003  1.076865243313529E-003 
 1.090410540592341E-003  1.104126216736579E-003  1.118014414848544E-003  1.132077304987448E-003 
 1.146317084508485E-003  1.160735978406175E-003  1.175336239662028E-003  1.190120149596569E-003 
 1.205090018225802E-003  1.220248184622157E-003  1.235597017279973E-003  1.251138914485582E-003 
 1.266876304692041E-003  1.282811646898588E-003  1.298947431034864E-003  1.315286178349966E-003 
 1.331830441806408E-003  1.348582806479011E-003  1.365545889958841E-003  1.382722342762201E-003 
 1.400114848744787E-003  1.417726125521046E-003  1.435558924888804E-003  1.453616033259243E-003 
 1.471900272092284E-003  1.490414498337442E-003  1.509161604880239E-003  1.528144520994211E-003 
 1.547366212798623E-003  1.566829683721926E-003  1.586537974971048E-003  1.606494166006598E-003 
 1.626701375024024E-003  1.647162759440848E-003  1.667881516390012E-003  1.688860883219442E-003 
 1.710104137997892E-003  1.731614600027137E-003  1.753395630360633E-003  1.775450632328685E-003 
 1.797783052070219E-003  1.820396379071258E-003  1.843294146710152E-003  1.866479932809682E-003 
 1.889957360196095E-003  1.913730097265185E-003  1.937801858555489E-003  1.962176405328681E-003 
 1.986857546157285E-003  2.011849137519768E-003  2.037155084403126E-003  2.062779340913048E-003 
 2.088725910891745E-003  2.114998848543564E-003  2.141602259068467E-003  2.168540299303472E-003 
 2.195817178372173E-003  2.223437158342421E-003  2.251404554892277E-003  2.279723737984354E-003 
 2.308399132548624E-003  2.337435219173828E-003  2.366836534807579E-003  2.396607673465259E-003 
 2.426753286947855E-003  2.457278085568804E-003  2.488186838889992E-003  2.519484376467014E-003 
 2.551175588603790E-003  2.583265427116694E-003  2.615758906108278E-003  2.648661102750742E-003 
 2.681977158079255E-003  2.715712277795244E-003  2.749871733079797E-003  2.784460861417302E-003 
 2.819485067429431E-003  2.854949823719635E-003  2.890860671728235E-003  2.927223222598295E-003 
 2.964043158052368E-003  3.001326231280277E-003  3.039078267838071E-003  3.077305166558268E-003 
 3.116012900471565E-003  3.155207517740139E-003  3.194895142602676E-003  3.235081976331313E-003 
 3.275774298200576E-003  3.316978466468549E-003  3.358700919370352E-003  3.400948176124133E-003 
 3.443726837949720E-003  3.487043589100053E-003  3.530905197905629E-003  3.575318517832059E-003 
 3.620290488550941E-003  3.665828137024198E-003  3.711938578602052E-003  3.758629018134810E-003 
 3.805906751098641E-003  3.853779164735506E-003  3.902253739207438E-003  3.951338048765319E-003 
 4.001039762932379E-003  4.051366647702576E-003  4.102326566754043E-003  4.153927482677816E-003 
 4.206177458221989E-003  4.259084657551543E-003  4.312657347524017E-003  4.366903898981205E-003 
 4.421832788057148E-003  4.477452597502513E-003  4.533772018025688E-003  4.590799849650708E-003 
 4.648545003092288E-003  4.707016501148143E-003  4.766223480108803E-003  4.826175191185185E-003 
 4.886881001954121E-003  4.948350397822044E-003  5.010592983507129E-003  5.073618484540017E-003 
 5.137436748783471E-003  5.202057747971119E-003  5.267491579265551E-003  5.333748466836044E-003 
 5.400838763456075E-003  5.468772952120987E-003  5.537561647685974E-003  5.607215598524663E-003 
 5.677745688208597E-003  5.749162937207775E-003  5.821478504612655E-003  5.894703689877771E-003 
 5.968849934587294E-003  6.043928824242820E-003  6.119952090073603E-003  6.196931610869598E-003 
 6.274879414837548E-003  6.353807681480402E-003  6.433728743500415E-003  6.514655088726122E-003 
 6.596599362063612E-003  6.679574367472310E-003  6.763593069965619E-003  6.848668597636754E-003 
 6.934814243709993E-003  7.022043468617802E-003  7.110369902104040E-003  7.199807345353636E-003 
 7.290369773149071E-003  7.382071336053934E-003  7.474926362623996E-003  7.568949361646073E-003 
 7.664155024405049E-003  7.760558226979439E-003  7.858174032565772E-003  7.957017693832273E-003 
 8.057104655302115E-003  8.158450555766646E-003  8.261071230729019E-003  8.364982714878474E-003 
 8.470201244595819E-003  8.576743260490391E-003  8.684625409968925E-003  8.793864549836782E-003 
 8.904477748931808E-003  9.016482290791406E-003  9.129895676353117E-003  9.244735626689165E-003 
 9.361020085775452E-003  9.478767223295286E-003  9.597995437478459E-003  9.718723357976014E-003 
 9.840969848771140E-003  9.964754011126753E-003  1.009009518657005E-002  1.021701295991472E-002 
 1.034552716232104E-002  1.047565787439460E-002  1.060742542932394E-002  1.074085041605759E-002 
 1.087595368252117E-002  1.101275633887495E-002  1.115127976081230E-002  1.129154559289973E-002 
 1.143357575195889E-002  1.157739243049108E-002  1.172301810014492E-002  1.187047551522756E-002 
 1.201978771626014E-002  1.217097803357783E-002  1.232407009097532E-002  1.247908780939804E-002 
 1.263605541067986E-002  1.279499742132787E-002  1.295593867635459E-002  1.311890432315855E-002 
 1.328391982545362E-002  1.345101096724775E-002  1.362020385687182E-002  1.379152493105905E-002 
 1.396500095907583E-002  1.414065904690447E-002  1.431852664147859E-002  1.449863153497171E-002 
 1.468100186913987E-002  1.486566613971881E-002  1.505265320087651E-002  1.524199226972170E-002 
 1.543371293086913E-002  1.562784514106213E-002  1.582441923385352E-002  1.602346592434523E-002 
 1.622501631398760E-002  1.642910189543910E-002  1.663575455748703E-002  1.684500659003027E-002 
 1.705689068912463E-002  1.727143996209167E-002  1.748868793269182E-002  1.770866854636247E-002 
 1.793141617552205E-002  1.815696562494080E-002  1.838535213717907E-002  1.861661139809408E-002 
 1.885077954241583E-002  1.908789315939330E-002  1.932798929851153E-002  1.957110547528075E-002 
 1.981727967709821E-002  2.006655036918379E-002  2.031895650059027E-002  2.057453751028921E-002 
 2.083333333333333E-002  2.109538440709656E-002  2.136073167759228E-002  2.162941660587137E-002 
 2.190148117450052E-002  2.217696789412207E-002  2.245591981009649E-002  2.273838050922817E-002 
 2.302439412657600E-002  2.331400535234961E-002  2.360725943889222E-002  2.390420220775151E-002 
 2.420488005683924E-002  2.450933996768107E-002  2.481762951275748E-002  2.512979686293710E-002 
 2.544589079500354E-002  2.576596069927678E-002  2.609005658733052E-002  2.641822909980667E-002 
 2.675052951432795E-002  2.708700975351024E-002  2.742772239307546E-002  2.777272067006674E-002 
 2.812205849116675E-002  2.847579044112076E-002  2.883397179126566E-002  2.919665850816612E-002 
 2.956390726235954E-002  2.993577543721095E-002  3.031232113787919E-002  3.069360320039616E-002 
 3.107968120085981E-002  3.147061546474320E-002  3.186646707632041E-002  3.226729788821111E-002 
 3.267317053104519E-002  3.308414842324883E-002  3.350029578095383E-002  3.392167762803148E-002 
 3.434835980625267E-002  3.478040898557590E-002  3.521789267456441E-002  3.566087923093469E-002 
 3.610943787223742E-002  3.656363868667289E-002  3.702355264404247E-002  3.748925160683769E-002 
 3.796080834146896E-002  3.843829652963544E-002  3.892179077983796E-002  3.941136663903688E-002 
 3.990710060445618E-002  4.040907013553657E-002  4.091735366603851E-002  4.143203061629775E-002 
 4.195318140563494E-002  4.248088746492116E-002  4.301523124930182E-002  4.355629625108035E-002 
 4.410416701276406E-002  4.465892914027416E-002  4.522066931632173E-002  4.578947531395215E-002 
 4.636543601025978E-002  4.694864140027518E-002  4.753918261102717E-002  4.813715191578135E-002 
 4.874264274845817E-002  4.935574971823212E-002  4.997656862431454E-002  5.060519647092268E-002 
 5.124173148243647E-002  5.188627311874650E-002  5.253892209079478E-002  5.319978037631098E-002 
 5.386895123574681E-002  5.454653922841046E-002  5.523265022880433E-002  5.592739144316817E-002 
 5.663087142623011E-002  5.734320009816890E-002  5.806448876178857E-002  5.879485011991040E-002 
 5.953439829298262E-002  6.028324883691169E-002  6.104151876111885E-002  6.180932654682226E-002 
 6.258679216555067E-002  6.337403709788887E-002  6.417118435245898E-002  6.497835848514157E-002 
 6.579568561853685E-002  6.662329346167238E-002  6.746131132995757E-002  6.830987016538903E-002 
 6.916910255701149E-002  7.003914276163396E-002  7.092012672480870E-002  7.181219210207244E-002 
 7.271547828045503E-002  7.363012640025986E-002  7.455627937711626E-002  7.549408192431127E-002 
 7.644368057540098E-002  7.740522370710633E-002  7.837886156249822E-002  7.936474627447214E-002 
 8.036303188952028E-002  8.137387439180115E-002  8.239743172751203E-002  8.343386382956935E-002 
 8.448333264259743E-002  8.554600214823356E-002  8.662203839075022E-002  8.771160950299917E-002 
 8.881488573268380E-002  8.993203946895927E-002  9.106324526936993E-002  9.220867988712371E-002 
 9.336852229870968E-002  9.454295373186473E-002  9.573215769388937E-002  9.693632000032226E-002 
 9.815562880397384E-002  9.939027462432505E-002  1.006404503772976E-001  1.019063514053960E-001 
 1.031881755082315E-001  1.044861229734284E-001  1.058003966079184E-001  1.071312017696311E-001 
 1.084787463995802E-001  1.098432410543560E-001  1.112248989390246E-001  1.126239359404410E-001 
 1.140405706609834E-001  1.154750244527088E-001  1.169275214519407E-001  1.183982886142906E-001 
 1.198875557501194E-001  1.213955555604475E-001  1.229225236733129E-001  1.244686986805900E-001 
 1.260343221752698E-001  1.276196387892080E-001  1.292248962313515E-001  1.308503453264410E-001 
 1.324962400542048E-001  1.341628375890430E-001  1.358503983402107E-001  1.375591859925090E-001 
 1.392894675474848E-001  1.410415133651515E-001  1.428155972062330E-001  1.446119962749382E-001 
 1.464309912622771E-001  1.482728663899166E-001  1.501379094545930E-001  1.520264118730799E-001 
 1.539386687277219E-001  1.558749788125434E-001  1.578356446799344E-001  1.598209726879256E-001 
 1.618312730480579E-001  1.638668598738519E-001  1.659280512298913E-001  1.680151691815182E-001 
 1.701285398451593E-001  1.722684934392807E-001  1.744353643359847E-001  1.766294911132580E-001 
 1.788512166078728E-001  1.811008879689584E-001  1.833788567122419E-001  1.856854787749737E-001 
 1.880211145715444E-001  1.903861290497985E-001  1.927808917480602E-001  1.952057768528737E-001 
 1.976611632574693E-001  2.001474346209690E-001  2.026649794283310E-001  2.052141910510538E-001 
 2.077954678086401E-001  2.104092130308345E-001  2.130558351206460E-001  2.157357476181603E-001 
 2.184493692651577E-001  2.211971240705419E-001  2.239794413765907E-001  2.267967559260448E-001 
 2.296495079300334E-001  2.325381431368617E-001  2.354631129016581E-001  2.384248742568984E-001 
 2.414238899838209E-001  2.444606286847336E-001  2.475355648562374E-001  2.506491789633654E-001 
 2.538019575146557E-001  2.569943931381722E-001  2.602269846584753E-001  2.635002371745671E-001 
 2.668146621388134E-001  2.701707774368570E-001  2.735691074685423E-001  2.770101832298498E-001 
 2.804945423958690E-001  2.840227294048076E-001  2.875952955430645E-001  2.912127990313677E-001 
 2.948758051119960E-001  2.985848861371031E-001  3.023406216581443E-001  3.061435985164363E-001 
 3.099944109348510E-001  3.138936606106623E-001  3.178419568095662E-001  3.218399164608756E-001 
 3.258881642539203E-001  3.299873327356548E-001  3.341380624094932E-001  3.383410018353929E-001 
 3.425968077311888E-001  3.469061450752113E-001  3.512696872101885E-001  3.556881159484555E-001 
 3.601621216784930E-001  3.646924034727977E-001  3.692796691971176E-001  3.739246356210553E-001 
 3.786280285300639E-001  3.833905828388557E-001  3.882130427062295E-001  3.930961616513517E-001 
 3.980407026714931E-001  4.030474383612462E-001  4.081171510332504E-001  4.132506328404236E-001 
 4.184486858997431E-001  4.237121224175756E-001  4.290417648165841E-001  4.344384458642382E-001 
 4.399030088029297E-001  4.454363074817363E-001  4.510392064898349E-001  4.567125812915931E-001 
 4.624573183633680E-001  4.682743153320130E-001  4.741644811151402E-001  4.801287360631375E-001 
 4.861680121029734E-001  4.922832528838177E-001  4.984754139244823E-001  5.047454627627287E-001 
 5.110943791064453E-001  5.175231549867260E-001  5.240327949128832E-001  5.306243160293979E-001 
 5.372987482748555E-001  5.440571345428749E-001  5.509005308450584E-001  5.578300064760032E-001 
 5.648466441803731E-001  5.719515403220854E-001  5.791458050556185E-001  5.864305624994720E-001 
 5.938069509118191E-001  6.012761228683549E-001  6.088392454423946E-001  6.164975003872287E-001 
 6.242520843207714E-001  6.321042089125408E-001  6.400551010729778E-001  6.481060031451596E-001 
 6.562581730989160E-001  6.645128847273855E-001  6.728714278460567E-001  6.813351084942952E-001 
 6.899052491394232E-001  6.985831888833535E-001  7.073702836718240E-001  7.162679065062756E-001 
 7.252774476583760E-001  7.344003148872612E-001  7.436379336594982E-001  7.529917473718112E-001 
 7.624632175766258E-001  7.720538242104290E-001  7.817650658250207E-001  7.915984598216625E-001 
 8.015555426881695E-001  8.116378702390005E-001  8.218470178583449E-001  8.321845807462903E-001 
 8.426521741680716E-001  8.532514337064542E-001  8.639840155173086E-001  8.748515965883752E-001 
 8.858558750013080E-001  8.969985701969992E-001  9.082814232442398E-001  9.197061971117768E-001 
 9.312746769437679E-001  9.429886703387242E-001  9.548500076319483E-001  9.668605421815203E-001 
 9.790221506579031E-001  9.913367333371604E-001  1.003806214397892E+000  1.016432542221885E+000 
 1.029217689698546E+000  1.042163654533184E+000  1.055272459559139E+000  1.068546153053869E+000 
 1.081986809058989E+000  1.095596527704343E+000  1.109377435536160E+000  1.123331685849324E+000 
 1.137461459023838E+000  1.151768962865510E+000  1.166256432950920E+000  1.180926132976747E+000 
 1.195780355113463E+000  1.210821420363500E+000  1.226051678923905E+000  1.241473510553562E+000 
 1.257089324945043E+000  1.272901562101112E+000  1.288912692715998E+000  1.305125218561436E+000 
 1.321541672877570E+000  1.338164620768791E+000  1.354996659604521E+000  1.372040419425077E+000 
 1.389298563352608E+000  1.406773788007212E+000  1.424468823928296E+000  1.442386436001222E+000 
 1.460529423889330E+000  1.478900622471395E+000  1.497502902284564E+000  1.516339169972911E+000 
 1.535412368741580E+000  1.554725478816686E+000  1.574281517910973E+000  1.594083541695331E+000 
 1.614134644276270E+000  1.634437958679357E+000  1.654996657338778E+000  1.675813952593027E+000 
 1.696893097186836E+000  1.718237384779440E+000  1.739850150459193E+000  1.761734771264708E+000 
 1.783894666712514E+000  1.806333299331352E+000  1.829054175203227E+000  1.852060844511215E+000 
 1.875356902094204E+000  1.898945988008593E+000  1.922831788097039E+000  1.947018034564411E+000 
 1.971508506560920E+000  1.996307030772643E+000  2.021417482019447E+000  2.046843783860418E+000 
 2.072589909206957E+000  2.098659880943524E+000  2.125057772556243E+000  2.151787708769393E+000 
 2.178853866189880E+000  2.206260473959876E+000  2.234011814417595E+000  2.262112223766450E+000 
 2.290566092752575E+000  2.319377867350882E+000  2.348552049459778E+000  2.378093197604563E+000 
 2.408005927649743E+000  2.438294913520248E+000  2.468964887931736E+000  2.500020643130116E+000 
 2.531467031640312E+000  2.563308967024511E+000  2.595551424649905E+000  2.628199442466087E+000 
 2.661258121792272E+000  2.694732628114354E+000  2.728628191892054E+000  2.762950109376181E+000 
 2.797703743436157E+000  2.832894524398023E+000  2.868527950892890E+000  2.904609590716149E+000 
 2.941145081697437E+000  2.978140132581542E+000  3.015600523920440E+000  3.053532108976483E+000 
 3.091940814637013E+000  3.130832642340437E+000  3.170213669013950E+000  3.210090048023102E+000 
 3.250468010133231E+000  3.291353864483072E+000  3.332753999570556E+000  3.374674884251007E+000 
 3.417123068747958E+000  3.460105185676586E+000  3.503627951080114E+000  3.547698165479190E+000 
 3.592322714934465E+000  3.637508572122593E+000  3.683262797425676E+000  3.729592540034514E+000 
 3.776505039065654E+000  3.824007624692500E+000  3.872107719290715E+000  3.920812838597927E+000 
 3.970130592888125E+000  4.020068688160762E+000  4.070634927344812E+000  4.121837211518036E+000 
 4.173683541141497E+000  4.226182017309685E+000  4.279340843016320E+000  4.333168324436055E+000 
 4.387672872222391E+000  4.442863002821793E+000  4.498747339804461E+000  4.555334615211754E+000 
 4.612633670920566E+000  4.670653460024943E+000  4.729403048234960E+000  4.788891615293309E+000 
 4.849128456409631E+000  4.910122983712887E+000  4.971884727722080E+000  5.034423338835349E+000 
 5.097748588837924E+000  5.161870372428965E+000  5.226798708767595E+000  5.292543743038485E+000 
 5.359115748036978E+000  5.426525125774308E+000  5.494782409102901E+000  5.563898263362128E+000 
 5.633883488044854E+000  5.704749018484804E+000  5.776505927565291E+000  5.849165427449365E+000 
 5.922738871331686E+000  5.997237755212570E+000  6.072673719694170E+000  6.149058551799423E+000 
 6.226404186813762E+000  6.304722710149997E+000  6.384026359236763E+000  6.464327525430551E+000 
 6.545638755951963E+000  6.627972755846209E+000  6.711342389968261E+000  6.795760684993090E+000 
 6.881240831451019E+000  6.967796185788855E+000  7.055440272456824E+000  7.144186786021758E+000 
 7.234049593306981E+000  7.325042735558934E+000  7.417180430641231E+000  7.510477075256202E+000 
 7.604947247194352E+000  7.700605707612276E+000  7.797467403339003E+000  7.895547469211574E+000 
 7.994861230439838E+000  8.095424205001017E+000  8.197252106064509E+000  8.300360844446999E+000 
 8.404766531098648E+000  8.510485479620428E+000  8.617534208813099E+000  8.725929445258423E+000 
 8.835688125932595E+000  8.946827400852790E+000  9.059364635756847E+000  9.173317414816644E+000 
 9.288703543385783E+000  9.405541050781574E+000  9.523848193102269E+000  9.643643456079575E+000 
 9.764945557967021E+000  9.887773452464852E+000  1.001214633168144E+001  1.013808362913223E+001 
 1.026560502277618E+001  1.039473043809046E+001  1.052548005118395E+001  1.065787429194967E+001 
 1.079193384725713E+001  1.092767966418459E+001  1.106513295329211E+001  1.120431519193578E+001 
 1.134524812762353E+001  1.148795378141331E+001  1.163245445135387E+001  1.177877271596886E+001 
 1.192693143778483E+001  1.207695376690347E+001  1.222886314461893E+001  1.238268330708059E+001 
 1.253843828900171E+001  1.269615242741517E+001  1.285585036547591E+001  1.301755705631169E+001 
 1.318129776692196E+001  1.334709808212585E+001  1.351498390855998E+001  1.368498147872624E+001 
 1.385711735509087E+001  1.403141843423478E+001  1.420791195105616E+001  1.438662548302613E+001 
 1.456758695449762E+001  1.475082464106874E+001  1.493636717400083E+001  1.512424354469211E+001 
 1.531448310920779E+001  1.550711559286681E+001  1.570217109488669E+001  1.589968009308649E+001 
 1.609967344864896E+001  1.630218241094284E+001  1.650723862240546E+001  1.671487412348706E+001 
 1.692512135765717E+001  1.713801317647380E+001  1.735358284471685E+001  1.757186404558549E+001 
 1.779289088596149E+001  1.801669790173837E+001  1.824332006321762E+001  1.847279278057311E+001 
 1.870515190938372E+001  1.894043375623609E+001  1.917867508439752E+001  1.941991311956017E+001 