<UPF version="2.0.1">
  <PP_INFO>
    Generated using "atomic" code by A. Dal Corso  v.6.1 svn rev. 13369
    Author: ADC
    Generation date: 16Nov2017
    Pseudopotential type: USPP
    Element: Co
    Functional: PBE

    Suggested minimum cutoff for wavefunctions:  45. Ry
    Suggested minimum cutoff for charge density: 238. Ry
    The Pseudo was generated with a Scalar-Relativistic Calculation
    Local Potential by smoothing AE potential with Bessel fncs, cutoff radius:   1.9000
    Pseudopotential contains additional information for GIPAW reconstruction.

    Valence configuration: 
    nl pn  l   occ       Rcut    Rcut US       E pseu
    4S  1  0  2.00      1.300      2.200    -0.402017
    4P  2  1  0.00      1.300      2.200    -0.093831
    3D  3  2  7.00      1.300      1.800    -0.602981
    Generation configuration:
    4S  1  0  2.00      1.300      2.200    -0.402015
    4S  1  0  0.00      1.300      2.200     6.300000
    4P  2  1  0.00      1.300      2.200    -0.093831
    4P  2  1  0.00      1.300      2.200     6.500000
    3D  3  2  7.00      1.300      1.800    -0.602980
    3D  3  2  0.00      1.300      1.800    -0.200000

    Pseudization used: troullier-martins
<PP_INPUTFILE>
 &input
   title='Co',
   zed=27.,
   rel=1,
   config='[Ar] 4s2 4p0 3d7',
   iswitch=3,
   dft='PBE'
 /
 &inputp
   lpaw=.false.,
   pseudotype=3,
   file_pseudopw='Co.pbe-n-rrkjus_psl.1.0.0.UPF',
   author='ADC',
   lloc=-1,
   rcloc=1.9,
   which_augfun='PSQ',
   rmatch_augfun_nc=.true.,
   nlcc=.true.,
   new_core_ps=.true.,
   rcore=1.2,
   tm=.true.
 /
6
4S  1 0 2.00  0.00  1.30  2.20  0.0
4S  1 0 0.00  6.30  1.30  2.20  0.0
4P  2 1 0.00  0.00  1.30  2.20  0.0
4P  2 1 0.00  6.50  1.30  2.20  0.0
3D  3 2 7.00  0.00  1.30  1.80  0.0
3D  3 2 0.00 -0.20  1.30  1.80  0.0
</PP_INPUTFILE>
  </PP_INFO>
  <!--                               -->
  <!-- END OF HUMAN READABLE SECTION -->
  <!--                               -->
  <PP_HEADER generated='Generated using "atomic" code by A. Dal Corso  v.6.1 svn rev. 13369'
             author="ADC"
             date="16Nov2017"
             comment=""
             element="Co"
             pseudo_type="USPP"
             relativistic="scalar"
             is_ultrasoft="T"
             is_paw="F"
             is_coulomb="F"
             has_so="F"
             has_wfc="F"
             has_gipaw="T"
             paw_as_gipaw="F"
             core_correction="T"
             functional="PBE"
             z_valence="9.000000000000000E+000"
             total_psenergy="-7.553295675807624E+001"
             wfc_cutoff="4.512817910976684E+001"
             rho_cutoff="2.375554372868980E+002"
             l_max="2"
             l_max_rho="4"
             l_local="-1"
             mesh_size="1193"
             number_of_wfc="3"
             number_of_proj="6"/>
  <PP_MESH dx="1.250000000000000E-002" mesh="1193" xmin="-7.000000000000000E+000" rmax="1.000000000000000E+002"
zmesh="2.700000000000000E+001">
    <PP_R type="real" size="1193" columns="4">
 3.377340613164875E-005  3.419822328403786E-005  3.462838397839193E-005  3.506395542819459E-005 
 3.550500569237111E-005  3.595160368592255E-005  3.640381919069402E-005  3.686172286627819E-005 
 3.732538626105594E-005  3.779488182337610E-005  3.827028291287544E-005  3.875166381194143E-005 
 3.923909973731890E-005  3.973266685186284E-005  4.023244227643918E-005  4.073850410197475E-005 
 4.125093140165938E-005  4.176980424330120E-005  4.229520370183731E-005  4.282721187200214E-005 
 4.336591188115461E-005  4.391138790226714E-005  4.446372516707781E-005  4.502300997940795E-005 
 4.558932972864744E-005  4.616277290340924E-005  4.674342910535610E-005  4.733138906320090E-005 
 4.792674464688326E-005  4.852958888192445E-005  4.914001596396265E-005  4.975812127347136E-005 
 5.038400139066274E-005  5.101775411057841E-005  5.165947845837032E-005  5.230927470477339E-005 
 5.296724438177313E-005  5.363349029847021E-005  5.430811655714455E-005  5.499122856952174E-005 
 5.568293307324342E-005  5.638333814854561E-005  5.709255323514631E-005  5.781068914934564E-005 
 5.853785810134137E-005  5.927417371276164E-005  6.001975103441877E-005  6.077470656428615E-005 
 6.153915826570125E-005  6.231322558579782E-005  6.309702947416941E-005  6.389069240176823E-005 
 6.469433838004146E-005  6.550809298030817E-005  6.633208335338037E-005  6.716643824943019E-005 
 6.801128803810767E-005  6.886676472891115E-005  6.973300199181397E-005  7.061013517815098E-005 
 7.149830134176701E-005  7.239763926043211E-005  7.330828945752580E-005  7.423039422399404E-005 
 7.516409764058274E-005  7.610954560035033E-005  7.706688583146405E-005  7.803626792028274E-005 
 7.901784333472992E-005  8.001176544796127E-005  8.101818956232908E-005  8.203727293364877E-005 
 8.306917479577050E-005  8.411405638545951E-005  8.517208096759022E-005  8.624341386065607E-005 
 8.732822246260121E-005  8.842667627697680E-005  8.953894693942605E-005  9.066520824450308E-005 
 9.180563617282809E-005  9.296040891858513E-005  9.412970691736512E-005  9.531371287435926E-005 
 9.651261179290735E-005  9.772659100340451E-005  9.895584019257224E-005  1.002005514330973E-004 
 1.014609192136433E-004  1.027371404692403E-004  1.040294146120560E-004  1.053379435625544E-004 
 1.066629317810460E-004  1.080045862996358E-004  1.093631167545721E-004  1.107387354190022E-004 
 1.121316572361413E-004  1.135420998528571E-004  1.149702836536781E-004  1.164164317952289E-004 
 1.178807702410988E-004  1.193635277971491E-004  1.208649361472648E-004  1.223852298895549E-004 
 1.239246465730101E-004  1.254834267346190E-004  1.270618139369531E-004  1.286600548062242E-004 
 1.302783990708196E-004  1.319170996003233E-004  1.335764124450270E-004  1.352565968759386E-004 
 1.369579154252938E-004  1.386806339275770E-004  1.404250215610596E-004  1.421913508898579E-004 
 1.439798979065234E-004  1.457909420751661E-004  1.476247663751219E-004  1.494816573451688E-004 
 1.513619051282988E-004  1.532658035170532E-004  1.551936499994289E-004  1.571457458053607E-004 
 1.591223959537904E-004  1.611239093003248E-004  1.631505985854965E-004  1.652027804836297E-004 
 1.672807756523209E-004  1.693849087825435E-004  1.715155086493795E-004  1.736729081633930E-004 
 1.758574444226473E-004  1.780694587653772E-004  1.803092968233246E-004  1.825773085757427E-004 
 1.848738484040821E-004  1.871992751473635E-004  1.895539521582463E-004  1.919382473598046E-004 
 1.943525333030143E-004  1.967971872249657E-004  1.992725911078082E-004  2.017791317384343E-004 
 2.043172007689175E-004  2.068871947777074E-004  2.094895153315966E-004  2.121245690484661E-004 
 2.147927676608201E-004  2.174945280801204E-004  2.202302724619294E-004  2.230004282718726E-004 
 2.258054283524310E-004  2.286457109905741E-004  2.315217199862430E-004  2.344339047216943E-004 
 2.373827202317179E-004  2.403686272747365E-004  2.433920924048005E-004  2.464535880444879E-004 
 2.495535925587210E-004  2.526925903295122E-004  2.558710718316493E-004  2.590895337093337E-004 
 2.623484788537824E-004  2.656484164818037E-004  2.689898622153663E-004  2.723733381621643E-004 
 2.757993729971977E-004  2.792685020453806E-004  2.827812673651838E-004  2.863382178333359E-004 
 2.899399092305842E-004  2.935869043285368E-004  2.972797729775986E-004  3.010190921960078E-004 
 3.048054462600011E-004  3.086394267951040E-004  3.125216328685752E-004  3.164526710830128E-004 
 3.204331556711346E-004  3.244637085917566E-004  3.285449596269725E-004  3.326775464805598E-004 
 3.368621148776231E-004  3.410993186654867E-004  3.453898199158639E-004  3.497342890283041E-004 
 3.541334048349446E-004  3.585878547065812E-004  3.630983346600677E-004  3.676655494670745E-004 
 3.722902127642069E-004  3.769730471645136E-004  3.817147843703981E-004  3.865161652879446E-004 
 3.913779401426909E-004  3.963008685968492E-004  4.012857198680056E-004  4.063332728493144E-004 
 4.114443162311965E-004  4.166196486245802E-004  4.218600786856806E-004  4.271664252423563E-004 
 4.325395174220538E-004  4.379801947813562E-004  4.434893074371712E-004  4.490677161995592E-004 
 4.547162927062383E-004  4.604359195587812E-004  4.662274904605184E-004  4.720919103561877E-004 
 4.780300955733286E-004  4.840429739654622E-004  4.901314850570719E-004  4.962965801904011E-004 
 5.025392226741086E-004  5.088603879337831E-004  5.152610636643563E-004  5.217422499844347E-004 
 5.283049595925650E-004  5.349502179254770E-004  5.416790633183045E-004  5.484925471668296E-004 
 5.553917340917673E-004  5.623777021051091E-004  5.694515427785716E-004  5.766143614141515E-004 
 5.838672772168328E-004  5.912114234694675E-004  5.986479477098472E-004  6.061780119100158E-004 
 6.138027926578242E-004  6.215234813407763E-004  6.293412843321883E-004  6.372574231796809E-004 
 6.452731347960561E-004  6.533896716525616E-004  6.616083019745938E-004  6.699303099398634E-004 
 6.783569958790437E-004  6.868896764789587E-004  6.955296849883115E-004  7.042783714260094E-004 
 7.131371027921086E-004  7.221072632814072E-004  7.311902544997326E-004  7.403874956829419E-004 
 7.497004239186811E-004  7.591304943709355E-004  7.686791805073979E-004  7.783479743297049E-004 
 7.881383866065621E-004  7.980519471098063E-004  8.080902048534360E-004  8.182547283356461E-004 
 8.285471057839112E-004  8.389689454031471E-004  8.495218756269975E-004  8.602075453722805E-004 
 8.710276242966336E-004  8.819838030594030E-004  8.930777935858102E-004  9.043113293344458E-004 
 9.156861655681259E-004  9.272040796281536E-004  9.388668712120350E-004  9.506763626546828E-004 
 9.626343992131610E-004  9.747428493550116E-004  9.870036050502031E-004  9.994185820667587E-004 
 1.011989720270095E-003  1.024718983926133E-003  1.037608362008216E-003  1.050659868507893E-003 
 1.063875542749609E-003  1.077257449709351E-003  1.090807680337307E-003  1.104528351884582E-003 
 1.118421608234019E-003  1.132489620235189E-003  1.146734586043589E-003  1.161158731464107E-003 
 1.175764310298813E-003  1.190553604699114E-003  1.205528925522349E-003  1.220692612692865E-003 
 1.236047035567632E-003  1.251594593306465E-003  1.267337715246890E-003  1.283278861283742E-003 
 1.299420522253520E-003  1.315765220323591E-003  1.332315509386284E-003  1.349073975457935E-003 
 1.366043237082963E-003  1.383225945743023E-003  1.400624786271299E-003  1.418242477272025E-003 
 1.436081771545260E-003  1.454145456517030E-003  1.472436354674864E-003  1.490957324008809E-003 
 1.509711258458008E-003  1.528701088362872E-003  1.547929780922960E-003  1.567400340660604E-003 
 1.587115809890377E-003  1.607079269194458E-003  1.627293837903979E-003  1.647762674586427E-003 
 1.668488977539179E-003  1.689475985289237E-003  1.710726977099264E-003  1.732245273479962E-003 
 1.754034236708923E-003  1.776097271355981E-003  1.798437824815184E-003  1.821059387843466E-003 
 1.843965495106072E-003  1.867159725728866E-003  1.890645703857571E-003  1.914427099224052E-003 
 1.938507627719718E-003  1.962891051976141E-003  1.987581181952968E-003  2.012581875533240E-003 
 2.037897039126195E-003  2.063530628277644E-003  2.089486648288050E-003  2.115769154838344E-003 
 2.142382254623648E-003  2.169330105994946E-003  2.196616919608842E-003  2.224246959085479E-003 
 2.252224541674740E-003  2.280554038930824E-003  2.309239877395313E-003  2.338286539288829E-003 
 2.367698563211392E-003  2.397480544851576E-003  2.427637137704606E-003  2.458173053799468E-003 
 2.489093064435176E-003  2.520402000926303E-003  2.552104755357873E-003  2.584206281349765E-003 
 2.616711594830727E-003  2.649625774822119E-003  2.682953964231535E-003  2.716701370656375E-003 
 2.750873267197552E-003  2.785474993283423E-003  2.820511955504086E-003  2.855989628456174E-003 
 2.891913555598266E-003  2.928289350117063E-003  2.965122695804466E-003  3.002419347945675E-003 
 3.040185134218474E-003  3.078425955603798E-003  3.117147787307793E-003  3.156356679695440E-003 
 3.196058759235944E-003  3.236260229460014E-003  3.276967371929160E-003  3.318186547217212E-003 
 3.359924195904169E-003  3.402186839582552E-003  3.444981081876426E-003  3.488313609473211E-003 
 3.532191193168506E-003  3.576620688924032E-003  3.621609038938891E-003  3.667163272734308E-003 
 3.713290508251991E-003  3.759997952966337E-003  3.807292905010609E-003  3.855182754317283E-003 
 3.903674983772753E-003  3.952777170386526E-003  4.002496986475160E-003  4.052842200861074E-003 
 4.103820680086443E-003  4.155440389642361E-003  4.207709395213473E-003  4.260635863938238E-003 
 4.314228065685075E-003  4.368494374344540E-003  4.423443269137763E-003  4.479083335941359E-003 
 4.535423268628961E-003  4.592471870429677E-003  4.650238055303604E-003  4.708730849334652E-003 
 4.767959392140897E-003  4.827932938302655E-003  4.888660858808529E-003  4.950152642519649E-003 
 5.012417897652322E-003  5.075466353279351E-003  5.139307860850196E-003  5.203952395730303E-003 
 5.269410058759766E-003  5.335691077831602E-003  5.402805809489904E-003  5.470764740548032E-003 
 5.539578489727227E-003  5.609257809315803E-003  5.679813586849203E-003  5.751256846811222E-003 
 5.823598752356580E-003  5.896850607055198E-003  5.971023856658403E-003  6.046130090887348E-003 
 6.122181045243947E-003  6.199188602844539E-003  6.277164796276674E-003  6.356121809479216E-003 
 6.436071979646117E-003  6.517027799154130E-003  6.599001917514759E-003  6.682007143350772E-003 
 6.766056446397584E-003  6.851162959529788E-003  6.937339980813224E-003  7.024600975582790E-003 
 7.112959578546452E-003  7.202429595915692E-003  7.293025007562743E-003  7.384759969205006E-003 
 7.477648814616870E-003  7.571706057869411E-003  7.666946395598251E-003  7.763384709299919E-003 
 7.861036067657153E-003  7.959915728893359E-003  8.060039143156778E-003  8.161421954934592E-003 
 8.264080005497401E-003  8.368029335374477E-003  8.473286186860093E-003  8.579867006551441E-003 
 8.687788447918439E-003  8.797067373905856E-003  8.907720859568228E-003  9.019766194737808E-003 
 9.133220886726171E-003  9.248102663059768E-003  9.364429474249869E-003  9.482219496597411E-003 
 9.601491135033023E-003  9.722263025992868E-003  9.844554040330621E-003  9.968383286266069E-003 
 1.009377011237084E-002  1.022073411059160E-002  1.034929511931139E-002  1.047947322644937E-002 
 1.061128877259963E-002  1.074476235420946E-002  1.087991482679752E-002  1.101676730821262E-002 
 1.115534118193342E-002  1.129565810040960E-002  1.143773998844518E-002  1.158160904662422E-002 
 1.172728775477976E-002  1.187479887550633E-002  1.202416545771666E-002  1.217541084024312E-002 
 1.232855865548443E-002  1.248363283309831E-002  1.264065760374052E-002  1.279965750285091E-002 
 1.296065737448724E-002  1.312368237520699E-002  1.328875797799821E-002  1.345590997625968E-002 
 1.362516448783120E-002  1.379654795907456E-002  1.397008716900582E-002  1.414580923347960E-002 
 1.432374160942598E-002  1.450391209914070E-002  1.468634885462937E-002  1.487108038200618E-002 
 1.505813554594812E-002  1.524754357420514E-002  1.543933406216698E-002  1.563353697748761E-002 
 1.583018266476766E-002  1.602930185029583E-002  1.623092564684998E-002  1.643508555855851E-002 
 1.664181348582303E-002  1.685114173030273E-002  1.706310299996171E-002  1.727773041417958E-002 
 1.749505750892647E-002  1.771511824200312E-002  1.793794699834676E-002  1.816357859540394E-002 
 1.839204828857073E-002  1.862339177670152E-002  1.885764520768701E-002  1.909484518410238E-002 
 1.933502876892653E-002  1.957823349133325E-002  1.982449735255520E-002  2.007385883182175E-002 
 2.032635689237136E-002  2.058203098753969E-002  2.084092106692430E-002  2.110306758262678E-002 
 2.136851149557359E-002  2.163729428191615E-002  2.190945793951168E-002  2.218504499448540E-002 
 2.246409850787531E-002  2.274666208236066E-002  2.303277986907483E-002  2.332249657450409E-002 
 2.361585746747310E-002  2.391290838621822E-002  2.421369574554990E-002  2.451826654410497E-002 
 2.482666837169036E-002  2.513894941671907E-002  2.545515847373971E-002  2.577534495106082E-002 
 2.609955887847088E-002  2.642785091505566E-002  2.676027235711380E-002  2.709687514617192E-002 
 2.743771187710067E-002  2.778283580633267E-002  2.813230086018403E-002  2.848616164328041E-002 
 2.884447344708907E-002  2.920729225855840E-002  2.957467476886582E-002  2.994667838227603E-002 
 3.032336122511046E-002  3.070478215482964E-002  3.109100076922991E-002  3.148207741575550E-002 
 3.187807320092809E-002  3.227904999989476E-002  3.268507046609613E-002  3.309619804105614E-002 
 3.351249696429481E-002  3.393403228336585E-002  3.436086986402050E-002  3.479307640049911E-002 
 3.523071942595238E-002  3.567386732299341E-002  3.612258933438271E-002  3.657695557384748E-002 
 3.703703703703703E-002  3.750290561261610E-002  3.797463409349738E-002  3.845229618821576E-002 
 3.893596653244536E-002  3.942572070066146E-002  3.992163521794932E-002  4.042378757196118E-002 
 4.093225622502401E-002  4.144712062639931E-002  4.196846122469727E-002  4.249635948044713E-002 
 4.303089787882532E-002  4.357215994254412E-002  4.412023024490219E-002  4.467519442299928E-002 
 4.523713919111741E-002  4.580615235426982E-002  4.638232282192093E-002  4.696574062187853E-002 
 4.755649691436079E-002  4.815468400624042E-002  4.876039536546748E-002  4.937372563567420E-002 
 4.999477065096311E-002  5.062362745088134E-002  5.126039429558339E-002  5.190517068118421E-002 
 5.255805735530585E-002  5.321915633281946E-002  5.388857091178523E-002  5.456640568959318E-002 
 5.525276657930633E-002  5.594776082621013E-002  5.665149702456963E-002  5.736408513459752E-002 
 5.808563649963589E-002  5.881626386355348E-002  5.955608138836236E-002  6.030520467205597E-002 
 6.106375076667141E-002  6.183183819657937E-002  6.260958697700340E-002  6.339711863277279E-002 
 6.419455621731097E-002  6.500202433186290E-002  6.581964914496440E-002  6.664755841215590E-002 
 6.748588149594481E-002  6.833474938601856E-002  6.919429471971193E-002  7.006465180273223E-002 
 7.094595663014432E-002  7.183834690762056E-002  7.274196207295736E-002  7.365694331786267E-002 
 7.458343361001767E-002  7.552157771541540E-002  7.647152222098103E-002  7.743341555747618E-002 
 7.840740802269165E-002  7.939365180493184E-002  8.039230100679419E-002  8.140351166924827E-002 
 8.242744179601738E-002  8.346425137826698E-002  8.451410241960386E-002  8.557715896138907E-002 
 8.665358710837008E-002  8.774355505463488E-002  8.884723310989252E-002  8.996479372608476E-002 
 9.109641152433151E-002  9.224226332221601E-002  9.340252816141295E-002  9.457738733566395E-002 
 9.576702441910544E-002  9.697162529495192E-002  9.819137818454103E-002  9.942647367674341E-002 
 1.006771047577424E-001  1.019434668411892E-001  1.032257577987352E-001  1.045241779909518E-001 
 1.058389302986358E-001  1.071702201545097E-001  1.085182555753224E-001  1.098832471943507E-001 
 1.112654082943123E-001  1.126649548406913E-001  1.140821055154826E-001  1.155170817513628E-001 
 1.169701077662877E-001  1.184414105985287E-001  1.199312201421468E-001  1.214397691829138E-001 
 1.229672934346871E-001  1.245140315762382E-001  1.260802252885488E-001  1.276661192925732E-001 
 1.292719613874756E-001  1.308980024893509E-001  1.325444966704289E-001  1.342117011987756E-001 
 1.358998765784906E-001  1.376092865904112E-001  1.393401983333302E-001  1.410928822657282E-001 
 1.428676122480360E-001  1.446646655854243E-001  1.464843230711325E-001  1.483268690303455E-001 
 1.501925913646176E-001  1.520817815968597E-001  1.539947349168893E-001  1.559317502275541E-001 
 1.578931301914379E-001  1.598791812781498E-001  1.618902138122132E-001  1.639265420215532E-001 
 1.659884840865950E-001  1.680763621899818E-001  1.701905025669145E-001  1.723312355561285E-001 
 1.744988956515091E-001  1.766938215543556E-001  1.789163562263068E-001  1.811668469429261E-001 
 1.834456453479671E-001  1.857531075083171E-001  1.880895939696327E-001  1.904554698126775E-001 
 1.928511047103648E-001  1.952768729855218E-001  1.977331536693770E-001  2.002203305607839E-001 
 2.027387922861928E-001  2.052889323603713E-001  2.078711492478946E-001  2.104858464254055E-001 
 2.131334324446567E-001  2.158143209963511E-001  2.185289309747784E-001  2.212776865432712E-001 
 2.240610172004796E-001  2.268793578474810E-001  2.297331488557360E-001  2.326228361358950E-001 
 2.355488712074752E-001  2.385117112694098E-001  2.415118192714857E-001  2.445496639866828E-001 
 2.476257200844175E-001  2.507404682047139E-001  2.538943950333031E-001  2.570879933776680E-001 
 2.603217622440482E-001  2.635962069154073E-001  2.669118390303876E-001  2.702691766632532E-001 
 2.736687444048389E-001  2.771110734445217E-001  2.805967016532166E-001  2.841261736674233E-001 
 2.877000409743251E-001  2.913188619979590E-001  2.949832021864733E-001  2.986936341004768E-001 
 3.024507375025054E-001  3.062550994476101E-001  3.101073143750839E-001  3.140079842013475E-001 
 3.179577184139962E-001  3.219571341670371E-001  3.260068563773190E-001  3.301075178221755E-001 
 3.342597592383011E-001  3.384642294218640E-001  3.427215853298848E-001  3.470324921828865E-001 
 3.513976235688343E-001  3.558176615483893E-001  3.602932967614773E-001  3.648252285352067E-001 
 3.694141649931381E-001  3.740608231659279E-001  3.787659291033708E-001  3.835302179878405E-001 
 3.883544342491693E-001  3.932393316809634E-001  3.981856735583835E-001  4.031942327574130E-001 
 4.082657918756150E-001  4.134011433544209E-001  4.186010896029477E-001  4.238664431233748E-001 
 4.291980266379038E-001  4.345966732173042E-001  4.400632264110887E-001  4.455985403793163E-001 
 4.512034800260545E-001  4.568789211345284E-001  4.626257505039560E-001  4.684448660881194E-001 
 4.743371771356682E-001  4.803036043321902E-001  4.863450799440752E-001  4.924625479641773E-001 
 4.986569642593225E-001  5.049292967196579E-001  5.112805254098924E-001  5.177116427224314E-001 
 5.242236535324373E-001  5.308175753548500E-001  5.374944385033676E-001  5.442552862514423E-001 
 5.511011749952908E-001  5.580331744189553E-001  5.650523676614511E-001  5.721598514860010E-001 
 5.793567364514137E-001  5.866441470856086E-001  5.940232220613213E-001  6.014951143740318E-001 
 6.090609915221135E-001  6.167220356892646E-001  6.244794439292241E-001  6.323344283528096E-001 
 6.402882163173209E-001  6.483420506183071E-001  6.564971896837646E-001  6.647549077707651E-001 
 6.731164951645581E-001  6.815832583801879E-001  6.901565203666302E-001  6.988376207135142E-001 
 7.076279158604322E-001  7.165287793088821E-001  7.255416018368896E-001  7.346677917163086E-001 
 7.439087749328765E-001  7.532659954090233E-001  7.627409152294828E-001  7.723350148697569E-001 
 7.820497934274306E-001  7.918867688564201E-001  8.018474782041509E-001  8.119334778517212E-001 
 8.221463437570987E-001  8.324876717013565E-001  8.429590775380270E-001  8.535621974455778E-001 
 8.642986881830638E-001  8.751702273490092E-001  8.861785136435242E-001  8.973252671337399E-001 
 9.086122295225694E-001  9.200411644208463E-001  9.316138576229036E-001  9.433321173855961E-001 
 9.551977747108542E-001  9.672126836317775E-001  9.793787215023260E-001  9.916977892906724E-001 
 1.004171811876219E+000  1.016802738350374E+000  1.029592542321100E+000  1.042543222221284E+000 
 1.055656801621012E+000  1.068935329543742E+000  1.082380880786479E+000  1.095995556243962E+000 
 1.109781483236927E+000  1.123740815844517E+000  1.137875735240850E+000  1.152188450035839E+000 
 1.166681196620295E+000  1.181356239515352E+000  1.196215871726323E+000  1.211262415100969E+000 
 1.226498220692308E+000  1.241925669125962E+000  1.257547170972132E+000  1.273365167122268E+000 
 1.289382129170446E+000  1.305600559799575E+000  1.322022993172441E+000  1.338651995327664E+000 
 1.355490164580668E+000  1.372540131929652E+000  1.389804561466704E+000  1.407286150794067E+000 
 1.424987631445635E+000  1.442911769313779E+000  1.461061365081502E+000  1.479439254660072E+000 
 1.498048309632127E+000  1.516891437700363E+000  1.535971583141882E+000  1.555291727268223E+000 
 1.574854888891214E+000  1.594664124794665E+000  1.614722530211982E+000  1.635033239309825E+000 
 1.655599425677809E+000  1.676424302824399E+000  1.697511124679019E+000  1.718863186100481E+000 
 1.740483823391828E+000  1.762376414821619E+000  1.784544381151808E+000  1.806991186172239E+000 
 1.829720337241859E+000  1.852735385836771E+000  1.876039928105136E+000  1.899637605429100E+000 
 1.923532104993759E+000  1.947727160363276E+000  1.972226552064285E+000  1.997034108176577E+000 
 2.022153704931268E+000  2.047589267316463E+000  2.073344769690524E+000  2.099424236403106E+000 
 2.125831742423935E+000  2.152571413979555E+000  2.179647429198054E+000  2.207064018761888E+000 
 2.234825466568965E+000  2.262936110401977E+000  2.291400342606218E+000  2.320222610775886E+000 
 2.349407418449013E+000  2.378959325811183E+000  2.408882950408037E+000  2.439182967866804E+000 
 2.469864112626860E+000  2.500931178679487E+000  2.532389020316971E+000  2.564242552891061E+000 
 2.596496753581032E+000  2.629156662171368E+000  2.662227381839225E+000  2.695714079951842E+000 
 2.729621988873920E+000  2.763956406785219E+000  2.798722698508396E+000  2.833926296347255E+000 
 2.869572700935592E+000  2.905667482096635E+000  2.942216279713383E+000  2.979224804609826E+000 
 3.016698839443265E+000  3.054644239607893E+000  3.093066934149677E+000  3.131972926692815E+000 
 3.171368296377802E+000  3.211259198811293E+000  3.251651867027960E+000  3.292552612464382E+000 
 3.333967825945252E+000  3.375903978681942E+000  3.418367623283626E+000  3.461365394781176E+000 
 3.504904011663857E+000  3.548990276929143E+000  3.593631079145683E+000  3.638833393529632E+000 
 3.684604283034591E+000  3.730950899455153E+000  3.777880484544433E+000  3.825400371145587E+000 
 3.873517984337564E+000  3.922240842595334E+000  3.971576558964613E+000  4.021532842251466E+000 
 4.072117498226801E+000  4.123338430846013E+000  4.175203643484049E+000  4.227721240185891E+000 
 4.280899426932876E+000  4.334746512924886E+000  4.389270911878642E+000  4.444481143342428E+000 
 4.500385834027221E+000  4.556993719154686E+000  4.614313643822054E+000  4.672354564384155E+000 
 4.731125549852927E+000  4.790635783314406E+000  4.850894563363652E+000  4.911911305557654E+000 
 4.973695543886500E+000  5.036256932263153E+000  5.099605246031804E+000  5.163750383495376E+000 
 5.228702367462112E+000  5.294471346811630E+000  5.361067598080783E+000  5.428501527069303E+000 
 5.496783670465800E+000  5.565924697494110E+000  5.635935411580356E+000  5.706826752041071E+000 
 5.778609795792412E+000  5.851295759081017E+000  5.924895999236544E+000  5.999422016446236E+000 
 6.074885455551925E+000  6.151298107869485E+000  6.228671913031313E+000  6.307018960851894E+000 
 6.386351493216828E+000  6.466681905995721E+000  6.548022750978980E+000  6.630386737839136E+000 
 6.713786736116718E+000  6.798235777231111E+000  6.883747056516826E+000  6.970333935285203E+000 
 7.058009942912222E+000  7.146788778952466E+000  7.236684315279665E+000  7.327710598254287E+000 
 7.419881850918216E+000  7.513212475217218E+000  7.607717054251236E+000  7.703410354552987E+000 
 7.800307328395361E+000  7.898423116127632E+000  7.997773048541263E+000  8.098372649265340E+000 
 8.200237637192117E+000  8.303383928933233E+000  8.407827641306596E+000  8.513585093854772E+000 
 8.620672811394899E+000  8.729107526600689E+000  8.838906182617032E+000  8.950085935707287E+000 
 9.062664157934089E+000  9.176658439873716E+000  9.292086593364614E+000  9.408966654290639E+000 
 9.527316885399072E+000  9.647155779154325E+000  9.768502060627380E+000  9.891374690421561E+000 
 1.001579286763530E+001  1.014177603286187E+001  1.026934387122718E+001  1.039851631546554E+001 
 1.052931354903411E+001  1.066175600926679E+001  1.079586439056741E+001  1.093165964764342E+001 
 1.106916299878002E+001  1.120839592915555E+001  1.134938019419869E+001  1.149213782298765E+001 
 1.163669112169238E+001  1.178306267705993E+001  1.193127535994357E+001  1.208135232887660E+001 
 1.223331703369070E+001  1.238719321918019E+001  1.254300492881213E+001  1.270077650848313E+001 
 1.286053261032352E+001  1.302229819654922E+001  1.318609854336219E+001  1.335195924489991E+001 
 1.351990621723440E+001  1.368996570242182E+001  1.386216427260267E+001  1.403652883415391E+001 
 1.421308663189305E+001  1.439186525333514E+001  1.457289263300357E+001  1.475619705679467E+001 
 1.494180716639760E+001  1.512975196376965E+001  1.532006081566773E+001  1.551276345823720E+001 
 1.570789000165795E+001  1.590547093484940E+001  1.610553713023440E+001  1.630811984856292E+001 
 1.651325074379695E+001  1.672096186805613E+001  1.693128567662626E+001  1.714425503303035E+001 
 1.735990321416359E+001  1.757826391549307E+001  1.779937125632257E+001  1.802325978512397E+001 
 1.824996448493544E+001  1.847952077882748E+001  1.871196453543813E+001  1.894733207457719E+001 
 1.918566017290155E+001  1.942698606966150E+001  1.967134747251930E+001  1.991878256344139E+001 
 2.016933000466405E+001  2.042302894473477E+001  2.067991902462911E+001  2.094004038394464E+001 
 2.120343366717303E+001  2.147014003005061E+001  2.174020114598922E+001  2.201365921258771E+001 
 2.229055695822527E+001  2.257093764873808E+001  2.285484509417940E+001  2.314232365566522E+001 
 2.343341825230571E+001  2.372817436822374E+001  2.402663805966219E+001  2.432885596217999E+001 
 2.463487529793933E+001  2.494474388308405E+001  2.525851013521094E+001  2.557622308093535E+001 
 2.589793236355133E+001  2.622368825078886E+001  2.655354164266814E+001  2.688754407945264E+001 
 2.722574774970274E+001  2.756820549842989E+001  2.791497083535412E+001  2.826609794326487E+001 
 2.862164168648703E+001  2.898165761945395E+001  2.934620199538749E+001  2.971533177508811E+001 
 3.008910463583496E+001  3.046757898039787E+001  3.085081394616329E+001  3.123886941437420E+001 
 3.163180601948709E+001  3.202968515864599E+001  3.243256900127577E+001  3.284052049879664E+001 
 3.325360339445994E+001  3.367188223330860E+001  3.409542237226226E+001  3.452428999032919E+001 
 3.495855209894740E+001  3.539827655245472E+001  3.584353205869173E+001  3.629438818973719E+001 