<UPF version="2.0.1">
  <PP_INFO>
    Generated using "atomic" code by A. Dal Corso  v.6.1 svn rev. 13369
    Author: ADC
    Generation date: 16Nov2017
    Pseudopotential type: PAW
    Element: Cr
    Functional:  SLA  PW   PBX  PBC

    Suggested minimum cutoff for wavefunctions:  48. Ry
    Suggested minimum cutoff for charge density: 457. Ry
    The Pseudo was generated with a Scalar-Relativistic Calculation
    Local Potential by smoothing AE potential with Bessel fncs, cutoff radius:   1.4000
    Pseudopotential contains additional information for GIPAW reconstruction.

    Valence configuration: 
    nl pn  l   occ       Rcut    Rcut US       E pseu
    3S  1  0  2.00      0.750      1.530    -5.730209
    4S  2  0  2.00      0.750      1.530    -0.361020
    3P  2  1  6.00      1.000      1.350    -3.621165
    3D  3  2  4.00      1.100      1.650    -0.440593
    Generation configuration:
    3S  1  0  2.00      0.750      1.530    -5.730243
    4S  2  0  2.00      0.750      1.530    -0.361026
    3P  2  1  6.00      1.000      1.350    -3.621190
    4P  3  1  0.00      1.000      1.350     7.000000
    3D  3  2  4.00      1.100      1.650    -0.440614
    3D  3  2  0.00      1.100      1.650     0.050000

    Pseudization used: troullier-martins
<PP_INPUTFILE>
 &input
   title='Cr',
   zed=24.,
   rel=1,
   config='[Ar] 4s2 4p0 3d4',
   iswitch=3,
   dft='PBE'
 /
 &inputp
   lpaw=.true.,
   pseudotype=3,
   file_pseudopw='Cr.pbe-spn-kjpaw_psl.1.0.0.UPF',
   author='ADC',
   lloc=-1,
   rcloc=1.4,
   which_augfun='PSQ',
   rmatch_augfun_nc=.true.,
   nlcc=.true.,
   new_core_ps=.true.,
   rcore=0.8,
   tm=.true.
 /
6
3S  1  0  2.00  0.00  0.75  1.53  0.0
4S  2  0  2.00  0.00  0.75  1.53  0.0
3P  2  1  6.00  0.00  1.00  1.35  0.0
4P  3  1  0.00  7.00  1.00  1.35  0.0
3D  3  2  4.00  0.00  1.10  1.65  0.0
3D  3  2  0.00  0.05  1.10  1.65  0.0
</PP_INPUTFILE>
  </PP_INFO>
  <!--                               -->
  <!-- END OF HUMAN READABLE SECTION -->
  <!--                               -->
  <PP_HEADER generated='Generated using "atomic" code by A. Dal Corso  v.6.1 svn rev. 13369'
             author="ADC"
             date="16Nov2017"
             comment=""
             element="Cr"
             pseudo_type="PAW"
             relativistic="scalar"
             is_ultrasoft="T"
             is_paw="T"
             is_coulomb="F"
             has_so="F"
             has_wfc="T"
             has_gipaw="T"
             paw_as_gipaw="T"
             core_correction="T"
             functional=" SLA  PW   PBX  PBC"
             z_valence="1.400000000000000E+001"
             total_psenergy="-2.475329250841294E+002"
             wfc_cutoff="4.803377474044279E+001"
             rho_cutoff="4.566060737585531E+002"
             l_max="2"
             l_max_rho="4"
             l_local="-1"
             mesh_size="1183"
             number_of_wfc="4"
             number_of_proj="6"/>
  <PP_MESH dx="1.250000000000000E-002" mesh="1183" xmin="-7.000000000000000E+000" rmax="1.000000000000000E+002"
zmesh="2.400000000000000E+001">
    <PP_R type="real" size="1183" columns="4">
 3.799508189810485E-005  3.847300119454260E-005  3.895693197569092E-005  3.944694985671892E-005 
 3.994313140391749E-005  4.044555414666287E-005  4.095429658953078E-005  4.146943822456297E-005 
 4.199105954368794E-005  4.251924205129811E-005  4.305406827698487E-005  4.359562178843411E-005 
 4.414398720448376E-005  4.469925020834570E-005  4.526149756099408E-005  4.583081711472160E-005 
 4.640729782686680E-005  4.699102977371385E-005  4.758210416456698E-005  4.818061335600240E-005 
 4.878665086629894E-005  4.940031139005053E-005  5.002169081296253E-005  5.065088622683395E-005 
 5.128799594472837E-005  5.193311951633540E-005  5.258635774352561E-005  5.324781269610102E-005 
 5.391758772774367E-005  5.459578749216501E-005  5.528251795945798E-005  5.597788643265528E-005 
 5.668200156449558E-005  5.739497337440071E-005  5.811691326566661E-005  5.884793404287007E-005 
 5.958814992949477E-005  6.033767658577898E-005  6.109663112678763E-005  6.186513214071195E-005 
 6.264329970739885E-005  6.343125541711382E-005  6.422912238953960E-005  6.503702529301384E-005 
 6.585509036400904E-005  6.668344542685684E-005  6.752221991372111E-005  6.837154488482191E-005 
 6.923155304891392E-005  7.010237878402255E-005  7.098415815844058E-005  7.187702895198926E-005 
 7.278113067754666E-005  7.369660460284669E-005  7.462359377255290E-005  7.556224303060896E-005 
 7.651269904287113E-005  7.747511032002505E-005  7.844962724079073E-005  7.943640207541985E-005 
 8.043558900948788E-005  8.144734416798612E-005  8.247182563971652E-005  8.350919350199329E-005 
 8.455960984565558E-005  8.562323880039412E-005  8.670024656039705E-005  8.779080141031808E-005 
 8.889507375157117E-005  9.001323612895644E-005  9.114546325762021E-005  9.229193205035487E-005 
 9.345282164524181E-005  9.462831343364196E-005  9.581859108853901E-005  9.702384059323808E-005 
 9.824425027042638E-005  9.948001081159889E-005  1.007313153068543E-004  1.019983592750660E-004 
 1.032813406944316E-004  1.045804600334083E-004  1.058959202820358E-004  1.072279269836542E-004 
 1.085766882670208E-004  1.099424148788301E-004  1.113253202166438E-004  1.127256203622344E-004 
 1.141435341153487E-004  1.155792830278954E-004  1.170330914385630E-004  1.185051865078736E-004 
 1.199957982536768E-004  1.215051595870903E-004  1.230335063488936E-004  1.245810773463775E-004 
 1.261481143906590E-004  1.277348623344643E-004  1.293415691103879E-004  1.309684857696325E-004 
 1.326158665212361E-004  1.342839687717928E-004  1.359730531656729E-004  1.376833836257492E-004 
 1.394152273946363E-004  1.411688550764463E-004  1.429445406790723E-004  1.447425616570022E-004 
 1.465631989546720E-004  1.484067370503637E-004  1.502734640006554E-004  1.521636714854310E-004 
 1.540776548534555E-004  1.560157131685242E-004  1.579781492561920E-004  1.599652697510901E-004 
 1.619773851448388E-004  1.640148098345618E-004  1.660778621720121E-004  1.681668645133149E-004 
 1.702821432693361E-004  1.724240289566849E-004  1.745928562493575E-004  1.767889640310309E-004 
 1.790126954480142E-004  1.812643979628654E-004  1.835444234086836E-004  1.858531280440834E-004 
 1.881908726088611E-004  1.905580223803614E-004  1.929549472305519E-004  1.953820216838171E-004 
 1.978396249754782E-004  2.003281411110494E-004  2.028479589262401E-004  2.053994721477105E-004 
 2.079830794545924E-004  2.105991845407839E-004  2.132481961780271E-004  2.159305282797802E-004 
 2.186465999658910E-004  2.213968356280865E-004  2.241816649962842E-004  2.270015232057385E-004 
 2.298568508650321E-004  2.327480941249208E-004  2.356757047480462E-004  2.386401401795244E-004 
 2.416418636184226E-004  2.446813440901355E-004  2.477590565196706E-004  2.508754818058566E-004 
 2.540311068964849E-004  2.572264248643959E-004  2.604619349845234E-004  2.637381428119061E-004 
 2.670555602606826E-004  2.704147056840786E-004  2.738161039554005E-004  2.772602865500489E-004 
 2.807477916285611E-004  2.842791641207012E-004  2.878549558106055E-004  2.914757254230004E-004 
 2.951420387105052E-004  2.988544685420291E-004  3.026135949922871E-004  3.064200054324348E-004 
 3.102742946218474E-004  3.141770648010532E-004  3.181289257858317E-004  3.221304950625029E-004 
 3.261823978844072E-004  3.302852673696039E-004  3.344397445997984E-004  3.386464787205088E-004 
 3.429061270425013E-004  3.472193551444921E-004  3.515868369771471E-004  3.560092549683895E-004 
 3.604873001300264E-004  3.650216721657262E-004  3.696130795803441E-004  3.742622397906298E-004 
 3.789698792373260E-004  3.837367334986725E-004  3.885635474053469E-004  3.934510751568421E-004 
 3.984000804393127E-004  4.034113365449039E-004  4.084856264925762E-004  4.136237431504588E-004 
 4.188264893597328E-004  4.240946780600778E-004  4.294291324166979E-004  4.348306859489377E-004 
 4.403001826605273E-004  4.458384771714553E-004  4.514464348515063E-004  4.571249319554787E-004 
 4.628748557600961E-004  4.686971047026527E-004  4.745925885213907E-004  4.805622283976509E-004 
 4.866069570998105E-004  4.927277191290257E-004  4.989254708668175E-004  5.052011807245041E-004 
 5.115558292945182E-004  5.179904095036289E-004  5.245059267680833E-004  5.311033991507112E-004 
 5.377838575199947E-004  5.445483457111450E-004  5.513979206892059E-004  5.583336527142012E-004 
 5.653566255083722E-004  5.724679364255059E-004  5.796686966224008E-004  5.869600312324890E-004 
 5.943430795416356E-004  6.018189951661617E-004  6.093889462330926E-004  6.170541155626834E-004 
 6.248157008532382E-004  6.326749148682477E-004  6.406329856258930E-004  6.486911565909204E-004 
 6.568506868689369E-004  6.651128514031509E-004  6.734789411735781E-004  6.819502633987678E-004 
 6.905281417400522E-004  6.992139165083733E-004  7.080089448737118E-004  7.169146010771410E-004 
 7.259322766455631E-004  7.350633806091318E-004  7.443093397214181E-004  7.536715986823463E-004 
 7.631516203639241E-004  7.727508860388286E-004  7.824708956118504E-004  7.923131678542607E-004 
 8.022792406411221E-004  8.123706711915831E-004  8.225890363121992E-004  8.329359326433096E-004 
 8.434129769085163E-004  8.540218061673025E-004  8.647640780708226E-004  8.756414711209179E-004 
 8.866556849323823E-004  8.978084404985321E-004  9.091014804601155E-004  9.205365693776018E-004 
 9.321154940069000E-004  9.438400635785405E-004  9.557121100803721E-004  9.677334885438157E-004 
 9.799060773337128E-004  9.922317784418282E-004  1.004712517784036E-003  1.017350245501251E-003 
 1.030146936264142E-003  1.043104589581673E-003  1.056225230113539E-003  1.069510907986518E-003 
 1.082963699114806E-003  1.096585705524388E-003  1.110379055681479E-003  1.124345904825104E-003 
 1.138488435303857E-003  1.152808856916899E-003  1.167309407259243E-003  1.181992352071379E-003 
 1.196859985593310E-003  1.211914630923020E-003  1.227158640379470E-003  1.242594395870155E-003 
 1.258224309263271E-003  1.274050822764587E-003  1.290076409299037E-003  1.306303572897120E-003 
 1.322734849086165E-003  1.339372805286503E-003  1.356220041212643E-003  1.373279189279474E-003 
 1.390552915013587E-003  1.408043917469773E-003  1.425754929652751E-003  1.443688718944209E-003 
 1.461848087535210E-003  1.480235872864040E-003  1.498854948059569E-003  1.517708222390176E-003 
 1.536798641718334E-003  1.556129188960901E-003  1.575702884555212E-003  1.595522786931028E-003 
 1.615591992988417E-003  1.635913638581659E-003  1.656490899009221E-003  1.677326989509910E-003 
 1.698425165765259E-003  1.719788724408231E-003  1.741421003538330E-003  1.763325383243180E-003 
 1.785505286126674E-003  1.807964177843766E-003  1.830705567641976E-003  1.853733008909730E-003 
 1.877050099731576E-003  1.900660483450392E-003  1.924567849236672E-003  1.948775932664957E-003 
 1.973288516297539E-003  1.998109430275478E-003  2.023242552917082E-003  2.048691811323899E-003 
 2.074461181994331E-003  2.100554691444974E-003  2.126976416839767E-003  2.153730486627059E-003 
 2.180821081184683E-003  2.208252433473158E-003  2.236028829697089E-003  2.264154609974896E-003 
 2.292634169016969E-003  2.321471956812350E-003  2.350672479324056E-003  2.380240299193137E-003 
 2.410180036451604E-003  2.440496369244315E-003  2.471194034559947E-003  2.502277828971165E-003 
 2.533752609384082E-003  2.565623293797177E-003  2.597894862069728E-003  2.630572356699932E-003 
 2.663660883612815E-003  2.697165612958023E-003  2.731091779917682E-003  2.765444685524402E-003 
 2.800229697489573E-003  2.835452251042092E-003  2.871117849777608E-003  2.907232066518486E-003 
 2.943800544184568E-003  2.980828996674884E-003  3.018323209760477E-003  3.056289041988422E-003 
 3.094732425597246E-003  3.133659367443851E-003  3.173075949942097E-003  3.212988332013196E-003 
 3.253402750048049E-003  3.294325518881695E-003  3.335763032780024E-003  3.377721766438885E-003 
 3.420208275995783E-003  3.463229200054273E-003  3.506791260721267E-003  3.550901264657370E-003 
 3.595566104140437E-003  3.640792758142516E-003  3.686588293420305E-003  3.732959865619363E-003 
 3.779914720392190E-003  3.827460194530371E-003  3.875603717110979E-003  3.924352810657362E-003 
 3.973715092314569E-003  4.023698275039536E-003  4.074310168806252E-003  4.125558681826096E-003 
 4.177451821783490E-003  4.229997697087129E-003  4.283204518136935E-003  4.337080598606944E-003 
 4.391634356744347E-003  4.446874316684842E-003  4.502809109784555E-003  4.559447475968707E-003 
 4.616798265097249E-003  4.674870438347655E-003  4.733673069615157E-003  4.793215346930518E-003 
 4.853506573895709E-003  4.914556171137607E-003  4.976373677779984E-003  5.038968752934029E-003 
 5.102351177207581E-003  5.166530854233387E-003  5.231517812216555E-003  5.297322205501483E-003 
 5.363954316158510E-003  5.431424555590487E-003  5.499743466159595E-003  5.568921722834605E-003 
 5.638970134858863E-003  5.709899647439270E-003  5.781721343456471E-003  5.854446445196591E-003 
 5.928086316104736E-003  6.002652462560553E-003  6.078156535676143E-003  6.154610333116536E-003 
 6.232025800943131E-003  6.310415035480278E-003  6.389790285205353E-003  6.470163952662626E-003 
 6.551548596401152E-003  6.633956932937098E-003  6.717401838740703E-003  6.801896352248267E-003 
 6.887453675899440E-003  6.974087178200107E-003  7.061810395811258E-003  7.150637035664119E-003 
 7.240580977101881E-003  7.331656274048397E-003  7.423877157204104E-003  7.517258036269619E-003 
 7.611813502197282E-003  7.707558329471012E-003  7.804507478414877E-003  7.902676097530639E-003 
 8.002079525864758E-003  8.102733295405153E-003  8.204653133508086E-003  8.307854965355632E-003 
 8.412354916443978E-003  8.518169315103087E-003  8.625314695048033E-003  8.733807797962409E-003 
 8.843665576114296E-003  8.954905195005027E-003  9.067544036051376E-003  9.181599699301416E-003 
 9.297090006184576E-003  9.414033002296287E-003  9.532446960217605E-003  9.652350382370370E-003 
 9.773762003908242E-003  9.896700795644088E-003  1.002118596701426E-002  1.014723696908003E-002 
 1.027487349756694E-002  1.040411549594224E-002  1.053498315853110E-002  1.066749693367209E-002 
 1.080167752691215E-002  1.093754590424197E-002  1.107512329537195E-002  1.121443119704933E-002 
 1.135549137641719E-002  1.149832587441555E-002  1.164295700922531E-002  1.178940737975554E-002 
 1.193769986917459E-002  1.208785764848564E-002  1.223990418014721E-002  1.239386322173920E-002 
 1.254975882967510E-002  1.270761536296080E-002  1.286745748700083E-002  1.302931017745224E-002 
 1.319319872412722E-002  1.335914873494462E-002  1.352718613993124E-002  1.369733719527351E-002 
 1.386962848741999E-002  1.404408693723560E-002  1.422073980420808E-002  1.439961469070727E-002 
 1.458073954629814E-002  1.476414267210787E-002  1.494985272524799E-002  1.513789872329215E-002 
 1.532831004881010E-002  1.552111645395888E-002  1.571634806513154E-002  1.591403538766455E-002 
 1.611420931060423E-002  1.631690111153329E-002  1.652214246145804E-002  1.672996542975695E-002 
 1.694040248919164E-002  1.715348652098078E-002  1.736925081993785E-002  1.758772909967356E-002 
 1.780895549786362E-002  1.803296458158281E-002  1.825979135270623E-002  1.848947125337833E-002 
 1.872204017155090E-002  1.895753444659057E-002  1.919599087495692E-002  1.943744671595203E-002 
 1.968193969754228E-002  1.992950802225351E-002  2.018019037314011E-002  2.043402591982943E-002 
 2.069105432464208E-002  2.095131574878921E-002  2.121485085864789E-002  2.148170083211518E-002 
 2.175190736504235E-002  2.202551267774991E-002  2.230255952162459E-002  2.258309118579947E-002 
 2.286715150391777E-002  2.315478486098215E-002  2.344603620028984E-002  2.374095103045512E-002 
 2.403957543252028E-002  2.434195606715567E-002  2.464814018195064E-002  2.495817561879607E-002 
 2.527211082135973E-002  2.558999484265575E-002  2.591187735270918E-002  2.623780864631710E-002 
 2.656783965090724E-002  2.690202193449550E-002  2.724040771374364E-002  2.758304986211809E-002 
 2.793000191815165E-002  2.828131809380895E-002  2.863705328295718E-002  2.899726306994342E-002 
 2.936200373827974E-002  2.973133227943762E-002  3.010530640175303E-002  3.048398453944341E-002 
 3.086742586173825E-002  3.125569028212425E-002  3.164883846770704E-002  3.204693184869046E-002 
 3.245003262797520E-002  3.285820379087820E-002  3.327150911497406E-002  3.369001318006053E-002 
 3.411378137824927E-002  3.454287992418335E-002  3.497737586538364E-002  3.541733709272494E-002 
 3.586283235104409E-002  3.631393124988160E-002  3.677070427435814E-002  3.723322279618816E-002 
 3.770155908483166E-002  3.817578631878659E-002  3.865597859702306E-002  3.914221095056149E-002 
 3.963455935419642E-002  4.013310073836759E-002  4.063791300118055E-002  4.114907502057842E-002 
 4.166666666666666E-002  4.219076881419311E-002  4.272146335518456E-002  4.325883321174273E-002 
 4.380296234900103E-002  4.435393578824414E-002  4.491183962019299E-002  4.547676101845633E-002 
 4.604878825315201E-002  4.662801070469922E-002  4.721451887778443E-002  4.780840441550302E-002 
 4.840976011367848E-002  4.901867993536213E-002  4.963525902551496E-002  5.025959372587419E-002 
 5.089178159000709E-002  5.153192139855355E-002  5.218011317466104E-002  5.283645819961335E-002 
 5.350105902865589E-002  5.417401950702047E-002  5.485544478615092E-002  5.554544134013348E-002 
 5.624411698233350E-002  5.695158088224151E-002  5.766794358253132E-002  5.839331701633224E-002 
 5.912781452471908E-002  5.987155087442189E-002  6.062464227575839E-002  6.138720640079232E-002 
 6.215936240171962E-002  6.294123092948639E-002  6.373293415264082E-002  6.453459577642222E-002 
 6.534634106209038E-002  6.616829684649767E-002  6.700059156190766E-002  6.784335525606296E-002 
 6.869671961250534E-002  6.956081797115179E-002  7.043578534912882E-002  7.132175846186939E-002 
 7.221887574447484E-002  7.312727737334578E-002  7.404710528808495E-002  7.497850321367538E-002 
 7.592161668293791E-002  7.687659305927087E-002  7.784358155967593E-002  7.882273327807375E-002 
 7.981420120891236E-002  8.081814027107313E-002  8.183470733207703E-002  8.286406123259550E-002 
 8.390636281126988E-002  8.496177492984232E-002  8.603046249860365E-002  8.711259250216070E-002 
 8.820833402552812E-002  8.931785828054832E-002  9.044133863264346E-002  9.157895062790429E-002 
 9.273087202051955E-002  9.389728280055036E-002  9.507836522205433E-002  9.627430383156270E-002 
 9.748528549691633E-002  9.871149943646423E-002  9.995313724862909E-002  1.012103929418454E-001 
 1.024834629648729E-001  1.037725462374930E-001  1.050778441815896E-001  1.063995607526220E-001 
 1.077379024714936E-001  1.090930784568209E-001  1.104653004576087E-001  1.118547828863363E-001 
 1.132617428524602E-001  1.146864001963378E-001  1.161289775235771E-001  1.175897002398208E-001 
 1.190687965859652E-001  1.205664976738234E-001  1.220830375222377E-001  1.236186530936445E-001 
 1.251735843311013E-001  1.267480741957777E-001  1.283423687049180E-001  1.299567169702831E-001 
 1.315913712370737E-001  1.332465869233448E-001  1.349226226599151E-001  1.366197403307781E-001 
 1.383382051140230E-001  1.400782855232679E-001  1.418402534496174E-001  1.436243842041449E-001 
 1.454309565609101E-001  1.472602528005197E-001  1.491125587542325E-001  1.509881638486225E-001 
 1.528873611508020E-001  1.548104474142127E-001  1.567577231249964E-001  1.587294925489443E-001 
 1.607260637790406E-001  1.627477487836023E-001  1.647948634550241E-001  1.668677276591387E-001 
 1.689666652851949E-001  1.710920042964671E-001  1.732440767815004E-001  1.754232190059983E-001 
 1.776297714653676E-001  1.798640789379185E-001  1.821264905387399E-001  1.844173597742474E-001 
 1.867370445974194E-001  1.890859074637295E-001  1.914643153877787E-001  1.938726400006445E-001 
 1.963112576079477E-001  1.987805492486501E-001  2.012809007545951E-001  2.038127028107919E-001 
 2.063763510164630E-001  2.089722459468568E-001  2.116007932158367E-001  2.142624035392622E-001 
 2.169574927991604E-001  2.196864821087121E-001  2.224497978780492E-001  2.252478718808819E-001 
 2.280811413219669E-001  2.309500489054177E-001  2.338550429038815E-001  2.367965772285812E-001 
 2.397751115002388E-001  2.427911111208950E-001  2.458450473466257E-001  2.489373973611801E-001 
 2.520686443505396E-001  2.552392775784161E-001  2.584497924627030E-001  2.617006906528819E-001 
 2.649924801084095E-001  2.683256751780860E-001  2.717007966804214E-001  2.751183719850181E-001 
 2.785789350949697E-001  2.820830267303031E-001  2.856311944124659E-001  2.892239925498765E-001 
 2.928619825245542E-001  2.965457327798332E-001  3.002758189091860E-001  3.040528237461599E-001 
 3.078773374554438E-001  3.117499576250869E-001  3.156712893598687E-001  3.196419453758512E-001 
 3.236625460961157E-001  3.277337197477038E-001  3.318561024597825E-001  3.360303383630365E-001 
 3.402570796903186E-001  3.445369868785614E-001  3.488707286719694E-001  3.532589822265159E-001 
 3.577024332157457E-001  3.622017759379167E-001  3.667577134244839E-001  3.713709575499474E-001 
 3.760422291430888E-001  3.807722580995970E-001  3.855617834961204E-001  3.904115537057473E-001 
 3.953223265149386E-001  4.002948692419380E-001  4.053299588566620E-001  4.104283821021075E-001 
 4.155909356172803E-001  4.208184260616689E-001  4.261116702412921E-001  4.314714952363206E-001 
 4.368987385303154E-001  4.423942481410838E-001  4.479588827531815E-001  4.535935118520896E-001 
 4.592990158600669E-001  4.650762862737235E-001  4.709262258033162E-001  4.768497485137967E-001 
 4.828477799676418E-001  4.889212573694672E-001  4.950711297124748E-001  5.012983579267308E-001 
 5.076039150293113E-001  5.139887862763445E-001  5.204539693169505E-001  5.270004743491342E-001 
 5.336293242776268E-001  5.403415548737139E-001  5.471382149370846E-001  5.540203664596995E-001 
 5.609890847917379E-001  5.680454588096152E-001  5.751905910861289E-001  5.824255980627353E-001 
 5.897516102239920E-001  5.971697722742062E-001  6.046812433162886E-001  6.122871970328726E-001 
 6.199888218697021E-001  6.277873212213246E-001  6.356839136191325E-001  6.436798329217511E-001 
 6.517763285078405E-001  6.599746654713097E-001  6.682761248189865E-001  6.766820036707858E-001 
 6.851936154623776E-001  6.938122901504227E-001  7.025393744203771E-001  7.113762318969109E-001 
 7.203242433569860E-001  7.293848069455954E-001  7.385593383942352E-001  7.478492712421106E-001 
 7.572560570601278E-001  7.667811656777114E-001  7.764260854124591E-001  7.861923233027035E-001 
 7.960814053429862E-001  8.060948767224924E-001  8.162343020665008E-001  8.265012656808471E-001 
 8.368973717994862E-001  8.474242448351511E-001  8.580835296331681E-001  8.688768917284765E-001 
 8.798060176058594E-001  8.908726149634726E-001  9.020784129796698E-001  9.134251625831863E-001 
 9.249146367267360E-001  9.365486306640260E-001  9.483289622302804E-001  9.602574721262750E-001 
 9.723360242059468E-001  9.845665057676354E-001  9.969508278489646E-001  1.009490925525457E+000 
 1.022188758212891E+000  1.035046309973452E+000  1.048065589825766E+000  1.061248632058796E+000 
 1.074597496549711E+000  1.088114269085750E+000  1.101801061690117E+000  1.115660012952006E+000 
 1.129693288360746E+000  1.143903080644171E+000  1.158291610111237E+000  1.172861124998944E+000 
 1.187613901823638E+000  1.202552245736710E+000  1.217678490884789E+000  1.232995000774457E+000 
 1.248504168641543E+000  1.264208417825082E+000  1.280110202145956E+000  1.296212006290319E+000 
 1.312516346197832E+000  1.329025769454771E+000  1.345742855692113E+000  1.362670216988590E+000 
 1.379810498278846E+000  1.397166377766707E+000  1.414740567343648E+000  1.432535813012551E+000 
 1.450554895316752E+000  1.468800629774522E+000  1.487275867318996E+000  1.505983494743622E+000 
 1.524926435153252E+000  1.544107648420858E+000  1.563530131650041E+000  1.583196919643325E+000 
 1.603111085376339E+000  1.623275740478001E+000  1.643694035716690E+000  1.664369161492581E+000 
 1.685304348336143E+000  1.706502867412908E+000  1.727968031034617E+000  1.749703193176750E+000 
 1.771711750002616E+000  1.793997140393998E+000  1.816562846488480E+000  1.839412394223554E+000 
 1.862549353887536E+000  1.885977340677448E+000  1.909700015263897E+000  1.933721084363041E+000 
 1.958044301315806E+000  1.982673466674321E+000  2.007612428795784E+000  2.032865084443769E+000 
 2.058435379397091E+000  2.084327309066367E+000  2.110544919118278E+000  2.137092306107738E+000 
 2.163973618117979E+000  2.191193055408685E+000  2.218754871072321E+000  2.246663371698649E+000 
 2.274922918047677E+000  2.303537925731020E+000  2.332512865901840E+000  2.361852265953495E+000 
 2.391560710226927E+000  2.421642840726999E+000  2.452103357847811E+000  2.482947021107125E+000 
 2.514178649890086E+000  2.545803124202224E+000  2.577825385431995E+000  2.610250437122871E+000 
 2.643083345755139E+000  2.676329241537581E+000  2.709993319209042E+000  2.744080838850154E+000 
 2.778597126705217E+000  2.813547576014423E+000  2.848937647856593E+000  2.884772872002443E+000 
 2.921058847778661E+000  2.957801244942789E+000  2.995005804569128E+000  3.032678339945823E+000 
 3.070824737483160E+000  3.109450957633371E+000  3.148563035821945E+000  3.188167083390662E+000 
 3.228269288552541E+000  3.268875917358715E+000  3.309993314677556E+000  3.351627905186055E+000 
 3.393786194373673E+000  3.436474769558880E+000  3.479700300918386E+000  3.523469542529417E+000 
 3.567789333425027E+000  3.612666598662704E+000  3.658108350406455E+000  3.704121689022430E+000 
 3.750713804188409E+000  3.797891976017185E+000  3.845663576194079E+000  3.894036069128823E+000 
 3.943017013121839E+000  3.992614061545286E+000  4.042834964038893E+000  4.093687567720836E+000 
 4.145179818413914E+000  4.197319761887047E+000  4.250115545112487E+000  4.303575417538785E+000 
 4.357707732379759E+000  4.412520947919751E+000  4.468023628835190E+000  4.524224447532900E+000 
 4.581132185505150E+000  4.638755734701765E+000  4.697104098919556E+000  4.756186395209126E+000 
 4.816011855299486E+000  4.876589827040497E+000  4.937929775863473E+000  5.000041286260232E+000 
 5.062934063280624E+000  5.126617934049023E+000  5.191102849299811E+000  5.256398884932174E+000 
 5.322516243584543E+000  5.389465256228707E+000  5.457256383784109E+000  5.525900218752361E+000 
 5.595407486872314E+000  5.665789048796047E+000  5.737055901785780E+000  5.809219181432298E+000 
 5.882290163394875E+000  5.956280265163084E+000  6.031201047840881E+000  6.107064217952966E+000 
 6.183881629274025E+000  6.261665284680874E+000  6.340427338027901E+000  6.420180096046205E+000 
 6.500936020266463E+000  6.582707728966144E+000  6.665507999141112E+000  6.749349768502015E+000 
 6.834246137495916E+000  6.920210371353171E+000  7.007255902160227E+000  7.095396330958381E+000 
 7.184645429868930E+000  7.275017144245186E+000  7.366525594851352E+000  7.459185080069028E+000 
 7.553010078131307E+000  7.648015249385000E+000  7.744215438581430E+000  7.841625677195854E+000 
 7.940261185776250E+000  8.040137376321525E+000  8.141269854689623E+000  8.243674423036072E+000 
 8.347367082282993E+000  8.452364034619370E+000  8.558681686032640E+000  8.666336648872109E+000 
 8.775345744444781E+000  8.885726005643585E+000  8.997494679608922E+000  9.110669230423508E+000 
 9.225267341841132E+000  9.341306920049886E+000  9.458806096469921E+000  9.577783230586618E+000 
 9.698256912819263E+000  9.820245967425775E+000  9.943769455444160E+000  1.006884667767070E+001 
 1.019549717767585E+001  1.032374074485793E+001  1.045359741753519E+001  1.058508748607697E+001 
 1.071823149607396E+001  1.085305025154862E+001  1.098956481820580E+001  1.112779652672426E+001 
 1.126776697608971E+001  1.140949803696961E+001  1.155301185513058E+001  1.169833085489873E+001 
 1.184547774266337E+001  1.199447551042514E+001  1.214534743938834E+001  1.229811710359885E+001 
 1.245280837362752E+001  1.260944542029999E+001  1.276805271847353E+001  1.292865505086110E+001 
 1.309127751190393E+001  1.325594551169242E+001  1.342268477993652E+001  1.359152136998618E+001 
 1.376248166290204E+001  1.393559237157771E+001  1.411088054491365E+001  1.428837357204352E+001 
 1.446809918661396E+001  1.465008547111787E+001  1.483436086128246E+001  1.502095415051240E+001 
 1.520989449438870E+001  1.540121141522455E+001  1.559493480667801E+001  1.579109493842315E+001 
 1.598972246087968E+001  1.619084841000203E+001  1.639450421212902E+001  1.660072168889400E+001 
 1.680953306219730E+001  1.702097095924086E+001  1.723506841762620E+001  1.745185889051685E+001 
 1.767137625186519E+001  1.789365480170558E+001  1.811872927151369E+001  1.834663482963329E+001 
 1.857740708677157E+001  1.881108210156315E+001  1.904769638620454E+001  1.928728691215915E+001 
 1.952989111593404E+001  1.977554690492970E+001  2.002429266336289E+001  2.027616725826447E+001 
 2.053121004555237E+001  2.078946087618092E+001  2.105096010236790E+001  2.131574858389934E+001 
 2.158386769451425E+001  2.185535932836919E+001  2.213026590658421E+001  2.240863038387156E+001 
 2.269049625524706E+001  2.297590756282662E+001  2.326490890270775E+001  2.355754543193772E+001 
 2.385386287556966E+001  2.415390753380693E+001  2.445772628923787E+001  2.476536661416118E+001 
 2.507687657800343E+001  2.539230485483034E+001  2.571170073095182E+001  2.603511411262337E+001 
 2.636259553384392E+001  2.669419616425170E+001  2.702996781711996E+001  2.736996295745249E+001 
 2.771423471018174E+001  2.806283686846956E+001  2.841582390211231E+001  2.877325096605226E+001 
 2.913517390899524E+001  2.950164928213747E+001  2.987273434800166E+001  3.024848708938422E+001 
 3.062896621841558E+001  3.101423118573362E+001  3.140434218977339E+001  3.179936018617299E+001 
 3.219934689729791E+001  3.260436482188569E+001  3.301447724481092E+001  3.342974824697412E+001 
 3.385024271531433E+001  3.427602635294760E+001  3.470716568943370E+001  3.514372809117098E+001 
 3.558578177192298E+001  3.603339580347674E+001  3.648664012643525E+001  3.694558556114622E+001 
 3.741030381876743E+001  3.788086751247218E+001  3.835735016879504E+001  3.883982623912035E+001 