<UPF version="2.0.1">
  <PP_INFO>
    Generated using "atomic" code by A. Dal Corso  v.6.1 svn rev. 13369
    Author: ADC
    Generation date: 16Nov2017
    Pseudopotential type: PAW
    Element: Cu
    Functional:  SLA  PW   PBX  PBC

    Suggested minimum cutoff for wavefunctions:  71. Ry
    Suggested minimum cutoff for charge density: 328. Ry
    The Pseudo was generated with a Scalar-Relativistic Calculation
    Local Potential by smoothing AE potential with Bessel fncs, cutoff radius:   1.4000
    Pseudopotential contains additional information for GIPAW reconstruction.

    Valence configuration: 
    nl pn  l   occ       Rcut    Rcut US       E pseu
    3S  1  0  2.00      1.000      1.250    -8.430553
    4S  2  0  1.00      1.000      1.250    -0.338803
    3P  2  1  6.00      1.100      1.200    -5.302455
    3D  3  2 10.00      1.100      1.450    -0.370314
    Generation configuration:
    3S  1  0  2.00      1.000      1.250    -8.430513
    4S  2  0  1.00      1.000      1.250    -0.338778
    3P  2  1  6.00      1.100      1.200    -5.302412
    4P  3  1  0.00      1.100      1.200     7.000000
    3D  3  2 10.00      1.100      1.450    -0.370267
    3D  3  2  0.00      1.100      1.450     0.050000

    Pseudization used: troullier-martins
<PP_INPUTFILE>
 &input
   title='Cu',
   zed=29.,
   rel=1,
   config='[Ar] 4s1 4p0 3d10',
   iswitch=3,
   dft='PBE'
 /
 &inputp
   lpaw=.true.,
   pseudotype=3,
   file_pseudopw='Cu.pbe-spn-kjpaw_psl.1.0.0.UPF',
   author='ADC',
   lloc=-1,
   rcloc=1.4,
   which_augfun='PSQ',
   rmatch_augfun_nc=.true.,
   nlcc=.true.,
   new_core_ps=.true.,
   rcore=0.8,
   tm=.true.
 /
6
3S  1  0  2.00  0.00  1.00  1.25  0.0
4S  2  0  1.00  0.00  1.00  1.25  0.0
3P  2  1  6.00  0.00  1.10  1.20  0.0
4P  3  1  0.00  7.00  1.10  1.20  0.0
3D  3  2 10.00  0.00  1.10  1.45  0.0
3D  3  2  0.00  0.05  1.10  1.45  0.0
</PP_INPUTFILE>
  </PP_INFO>
  <!--                               -->
  <!-- END OF HUMAN READABLE SECTION -->
  <!--                               -->
  <PP_HEADER generated='Generated using "atomic" code by A. Dal Corso  v.6.1 svn rev. 13369'
             author="ADC"
             date="16Nov2017"
             comment=""
             element="Cu"
             pseudo_type="PAW"
             relativistic="scalar"
             is_ultrasoft="T"
             is_paw="T"
             is_coulomb="F"
             has_so="F"
             has_wfc="T"
             has_gipaw="T"
             paw_as_gipaw="T"
             core_correction="T"
             functional=" SLA  PW   PBX  PBC"
             z_valence="1.900000000000000E+001"
             total_psenergy="-4.866147546035567E+002"
             wfc_cutoff="7.079222852650942E+001"
             rho_cutoff="3.284403928297933E+002"
             l_max="2"
             l_max_rho="4"
             l_local="-1"
             mesh_size="1199"
             number_of_wfc="4"
             number_of_proj="6"/>
  <PP_MESH dx="1.250000000000000E-002" mesh="1199" xmin="-7.000000000000000E+000" rmax="1.000000000000000E+002"
zmesh="2.900000000000000E+001">
    <PP_R type="real" size="1199" columns="4">
 3.144420570877642E-005  3.183972512651801E-005  3.224021956608904E-005  3.264575160556048E-005 
 3.305638461013862E-005  3.347218274206582E-005  3.389321097064616E-005  3.431953508239694E-005 
 3.475122169132795E-005  3.518833824935016E-005  3.563095305681507E-005  3.607913527318685E-005 
 3.653295492784862E-005  3.699248293104472E-005  3.745779108496062E-005  3.792895209494201E-005 
 3.840603958085529E-005  3.888912808859077E-005  3.937829310171060E-005  3.987361105324337E-005 
 4.037515933762670E-005  4.088301632280044E-005  4.139726136245175E-005  4.191797480841430E-005 
 4.244523802322348E-005  4.297913339282930E-005  4.351974433946946E-005  4.406715533470429E-005 
 4.462145191261545E-005  4.518272068317103E-005  4.575104934575833E-005  4.632652670288713E-005 
 4.690924267406531E-005  4.749928830984886E-005  4.809675580606892E-005  4.870173851823730E-005 
 4.931433097613360E-005  4.993462889857571E-005  5.056272920837597E-005  5.119873004748575E-005 
 5.184273079233008E-005  5.249483206933557E-005  5.315513577065346E-005  5.382374507008042E-005 
 5.450076443917990E-005  5.518629966360567E-005  5.588045785963127E-005  5.658334749088710E-005 
 5.729507838530806E-005  5.801576175229452E-005  5.874551020008875E-005  5.948443775337043E-005 
 6.023265987107310E-005  6.099029346442485E-005  6.175745691521621E-005  6.253427009429707E-005 
 6.332085438030714E-005  6.411733267864141E-005  6.492382944065439E-005  6.574047068310609E-005 
 6.656738400785205E-005  6.740469862178162E-005  6.825254535700678E-005  6.911105669130479E-005 
 6.998036676881842E-005  7.086061142101582E-005  7.175192818791480E-005  7.265445633957359E-005 
 7.356833689785201E-005  7.449371265844671E-005  7.543072821320293E-005  7.637952997270748E-005 
 7.734026618916563E-005  7.831308697956576E-005  7.929814434913572E-005  8.029559221509358E-005 
 8.130558643069768E-005  8.232828480959908E-005  8.336384715050012E-005  8.441243526212355E-005 
 8.547421298849512E-005  8.654934623454478E-005  8.763800299202960E-005  8.874035336578276E-005 
 8.985656960029304E-005  9.098682610661798E-005  9.213129948963623E-005  9.329016857564229E-005 
 9.446361444028856E-005  9.565182043687891E-005  9.685497222501769E-005  9.807325779961958E-005 
 9.930686752028425E-005  1.005559941410403E-004  1.018208328404637E-004  1.031015812521745E-004 
 1.043984394957178E-004  1.057116102078325E-004  1.070412985741141E-004  1.083877123610752E-004 
 1.097510619486092E-004  1.111315603628630E-004  1.125294233095224E-004  1.139448692075166E-004 
 1.153781192231473E-004  1.168293973046452E-004  1.182989302171633E-004  1.197869475782088E-004 
 1.212936818935217E-004  1.228193685934045E-004  1.243642460695079E-004  1.259285557120808E-004 
 1.275125419476873E-004  1.291164522773993E-004  1.307405373154692E-004  1.323850508284884E-004 
 1.340502497750390E-004  1.357363943458442E-004  1.374437480044238E-004  1.391725775282606E-004 
 1.409231530504851E-004  1.426957481020840E-004  1.444906396546407E-004  1.463081081636117E-004 
 1.481484376121497E-004  1.500119155554748E-004  1.518988331658071E-004  1.538094852778621E-004 
 1.557441704349195E-004  1.577031909354715E-004  1.596868528804567E-004  1.616954662210900E-004 
 1.637293448072923E-004  1.657888064367305E-004  1.678741729044746E-004  1.699857700532776E-004 
 1.721239278244902E-004  1.742889803096143E-004  1.764812658025052E-004  1.787011268522319E-004 
 1.809489103165995E-004  1.832249674163474E-004  1.855296537900283E-004  1.878633295495767E-004 
 1.902263593365783E-004  1.926191123792448E-004  1.950419625501072E-004  1.974952884244340E-004 
 1.999794733393842E-004  2.024949054539052E-004  2.050419778093826E-004  2.076210883910538E-004 
 2.102326401901944E-004  2.128770412670863E-004  2.155547048147780E-004  2.182660492236465E-004 
 2.210114981467718E-004  2.237914805661340E-004  2.266064308596418E-004  2.294567888690060E-004 
 2.323429999684644E-004  2.352655151343734E-004  2.382247910156735E-004  2.412212900052418E-004 
 2.442554803121422E-004  2.473278360347827E-004  2.504388372349962E-004  2.535889700130495E-004 
 2.567787265835979E-004  2.600086053525957E-004  2.632791109951711E-004  2.665907545344852E-004 
 2.699440534215784E-004  2.733395316162240E-004  2.767777196687986E-004  2.802591548031797E-004 
 2.837843810006907E-004  2.873539490850969E-004  2.909684168086735E-004  2.946283489393568E-004 
 2.983343173489874E-004  3.020869011026699E-004  3.058866865492503E-004  3.097342674129350E-004 
 3.136302448860629E-004  3.175752277230393E-004  3.215698323354595E-004  3.256146828884211E-004 
 3.297104113980519E-004  3.338576578302653E-004  3.380570702007527E-004  3.423093046762418E-004 
 3.466150256770202E-004  3.509749059807541E-004  3.553896268276121E-004  3.598598780267070E-004 
 3.643863580638847E-004  3.689697742108596E-004  3.736108426357294E-004  3.783102885148789E-004 
 3.830688461462864E-004  3.878872590642643E-004  3.927662801556337E-004  3.977066717773663E-004 
 4.027092058757053E-004  4.077746641067799E-004  4.129038379587456E-004  4.180975288754517E-004 
 4.233565483816702E-004  4.286817182098997E-004  4.340738704287586E-004  4.395338475730024E-004 
 4.450625027751680E-004  4.506606998988786E-004  4.563293136738255E-004  4.620692298324424E-004 
 4.678813452483080E-004  4.737665680762808E-004  4.797258178944007E-004  4.857600258475771E-004 
 4.918701347930778E-004  4.980570994478579E-004  5.043218865377317E-004  5.106654749484276E-004 
 5.170888558785419E-004  5.235930329944119E-004  5.301790225869460E-004  5.368478537304169E-004 
 5.436005684432582E-004  5.504382218508836E-004  5.573618823505474E-004  5.643726317782906E-004 
 5.714715655779743E-004  5.786597929724469E-004  5.859384371368649E-004  5.933086353741856E-004 
 6.007715392928798E-004  6.083283149868677E-004  6.159801432177254E-004  6.237282195991832E-004 
 6.315737547839372E-004  6.395179746528237E-004  6.475621205063590E-004  6.557074492586984E-004 
 6.639552336340321E-004  6.723067623654481E-004  6.807633403963028E-004  6.893262890841183E-004 
 6.979969464070480E-004  7.067766671729399E-004  7.156668232310256E-004  7.246688036862770E-004 
 7.337840151164543E-004  7.430138817918887E-004  7.523598458980266E-004  7.618233677607739E-004 
 7.714059260746759E-004  7.811090181339645E-004  7.909341600665148E-004  8.008828870707439E-004 
 8.109567536554865E-004  8.211573338828923E-004  8.314862216143751E-004  8.419450307596564E-004 
 8.525353955289447E-004  8.632589706882809E-004  8.741174318181016E-004  8.851124755750495E-004 
 8.962458199570809E-004  9.075192045719073E-004  9.189343909088098E-004  9.304931626138789E-004 
 9.421973257687093E-004  9.540487091726061E-004  9.660491646283387E-004  9.782005672314862E-004 
 9.905048156634286E-004  1.002963832488016E-003  1.015579564451976E-003  1.028353982789093E-003 
 1.041289083528224E-003  1.054386887805176E-003  1.067649442178514E-003  1.081078818949341E-003 
 1.094677116485102E-003  1.108446459547451E-003  1.122388999624256E-003  1.136506915265771E-003 
 1.150802412425037E-003  1.165277724802571E-003  1.179935114195380E-003  1.194776870850380E-003 
 1.209805313822243E-003  1.225022791335757E-003  1.240431681152747E-003  1.256034390943594E-003 
 1.271833358663449E-003  1.287831052933159E-003  1.304029973425003E-003  1.320432651253264E-003 
 1.337041649369724E-003  1.353859562964132E-003  1.370889019869701E-003  1.388132680973719E-003 
 1.405593240633318E-003  1.423273427096467E-003  1.441176002928273E-003  1.459303765442632E-003 
 1.477659547139317E-003  1.496246216146565E-003  1.515066676669221E-003  1.534123869442535E-003 
 1.553420772191649E-003  1.572960400096876E-003  1.592745806264832E-003  1.612780082205482E-003 
 1.633066358315204E-003  1.653607804365913E-003  1.674407630000344E-003  1.695469085233572E-003 
 1.716795460960826E-003  1.738390089471703E-003  1.760256344970842E-003  1.782397644105152E-003 
 1.804817446497668E-003  1.827519255288131E-003  1.850506617680349E-003  1.873783125496465E-003 
 1.897352415738181E-003  1.921218171155048E-003  1.945384120819909E-003  1.969854040711562E-003 
 1.994631754304776E-003  2.019721133167709E-003  2.045126097566853E-003  2.070850617079584E-003 
 2.096898711214413E-003  2.123274450039043E-003  2.149981954816326E-003  2.177025398648220E-003 
 2.204409007127847E-003  2.232137058999743E-003  2.260213886828426E-003  2.288643877675367E-003 
 2.317431473784474E-003  2.346581173276214E-003  2.376097530850434E-003  2.405985158498057E-003 
 2.436248726221711E-003  2.466892962765421E-003  2.497922656353499E-003  2.529342655438694E-003 
 2.561157869459790E-003  2.593373269608705E-003  2.625993889607253E-003  2.659024826493680E-003 
 2.692471241419075E-003  2.726338360453817E-003  2.760631475404158E-003  2.795355944639077E-003 
 2.830517193927545E-003  2.866120717286295E-003  2.902172077838290E-003  2.938676908681961E-003 
 2.975640913771397E-003  3.013069868807599E-003  3.050969622140942E-003  3.089346095684990E-003 
 3.128205285841812E-003  3.167553264438927E-003  3.207396179678051E-003  3.247740257095748E-003 
 3.288591800536195E-003  3.329957193136168E-003  3.371842898322415E-003  3.414255460821597E-003 
 3.457201507682888E-003  3.500687749313486E-003  3.544720980527119E-003  3.589308081605746E-003 
 3.634456019374632E-003  3.680171848290904E-003  3.726462711545839E-003  3.773335842180999E-003 
 3.820798564218413E-003  3.868858293804956E-003  3.917522540371164E-003  3.966798907804566E-003 
 4.016695095637828E-003  4.067218900251813E-003  4.118378216093780E-003  4.170181036910921E-003 
 4.222635456999377E-003  4.275749672469010E-003  4.329531982524045E-003  4.383990790759848E-003 
 4.439134606476008E-003  4.494972046005920E-003  4.551511834063113E-003  4.608762805104500E-003 
 4.666733904710783E-003  4.725434190984223E-003  4.784872835963976E-003  4.845059127059247E-003 
 4.906002468500472E-003  4.967712382808733E-003  5.030198512283704E-003  5.093470620510236E-003 
 5.157538593883970E-003  5.222412443156093E-003  5.288102304997534E-003  5.354618443582863E-003 
 5.421971252194058E-003  5.490171254844495E-003  5.559229107923341E-003  5.629155601860635E-003 
 5.699961662813329E-003  5.771658354372502E-003  5.844256879292076E-003  5.917768581239271E-003 
 5.992204946567074E-003  6.067577606109017E-003  6.143898336996500E-003  6.221179064498995E-003 
 6.299431863887406E-003  6.378668962320837E-003  6.458902740757140E-003  6.540145735887425E-003 
 6.622410642094973E-003  6.705710313438747E-003  6.790057765661864E-003  6.875466178225350E-003 
 6.961948896367430E-003  7.049519433188762E-003  7.138191471763889E-003  7.227978867279235E-003 
 7.318895649198038E-003  7.410956023452437E-003  7.504174374663207E-003  7.598565268387379E-003 
 7.694143453394132E-003  7.790923863969340E-003  7.888921622249053E-003  7.988152040582376E-003 
 8.088630623924063E-003  8.190373072257177E-003  8.293395283046283E-003  8.397713353721407E-003 
 8.503343584193331E-003  8.610302479400473E-003  8.718606751887809E-003  8.828273324418280E-003 
 8.939319332616952E-003  9.051762127648532E-003  9.165619278928509E-003  9.280908576868408E-003 
 9.397648035655608E-003  9.515855896068041E-003  9.635550628324396E-003  9.756750934970105E-003 
 9.879475753799659E-003  1.000374426081570E-002  1.012957587322527E-002  1.025699025247382E-002 
 1.038600730731732E-002  1.051664719693308E-002  1.064893033406965E-002  1.078287738823634E-002 
 1.091850928893288E-002  1.105584722891969E-002  1.119491266752930E-002  1.133572733401945E-002 
 1.147831323096826E-002  1.162269263771222E-002  1.176888811382738E-002  1.191692250265429E-002 
 1.206681893486743E-002  1.221860083208927E-002  1.237229191055006E-002  1.252791618479350E-002 
 1.268549797142905E-002  1.284506189293148E-002  1.300663288148817E-002  1.317023618289480E-002 
 1.333589736050005E-002  1.350364229919996E-002  1.367349720948252E-002  1.384548863152299E-002 
 1.401964343933101E-002  1.419598884494961E-002  1.437455240270719E-002  1.455536201352295E-002 
 1.473844592926644E-002  1.492383275717198E-002  1.511155146430861E-002  1.530163138210620E-002 
 1.549410221093868E-002  1.568899402476461E-002  1.588633727582642E-002  1.608616279940858E-002 
 1.628850181865568E-002  1.649338594945118E-002  1.670084720535733E-002  1.691091800261746E-002 
 1.712363116522103E-002  1.733901993003244E-002  1.755711795198446E-002  1.777795930933670E-002 
 1.800157850900056E-002  1.822801049193095E-002  1.845729063858587E-002  1.868945477445473E-002 
 1.892453917565609E-002  1.916258057460592E-002  1.940361616575711E-002  1.964768361141114E-002 
 1.989482104760299E-002  2.014506709005986E-002  2.039846084023501E-002  2.065504189141744E-002 
 2.091485033491839E-002  2.117792676633579E-002  2.144431229189725E-002  2.171404853488312E-002 
 2.198717764213013E-002  2.226374229061697E-002  2.254378569413267E-002  2.282735161002877E-002 
 2.311448434605654E-002  2.340522876729017E-002  2.369963030313697E-002  2.399773495443594E-002 
 2.429958930064530E-002  2.460524050712079E-002  2.491473633248526E-002  2.522812513609110E-002 
 2.554545588557648E-002  2.586677816451662E-002  2.619214218017134E-002  2.652159877133004E-002 
 2.685519941625534E-002  2.719299624072679E-002  2.753504202618542E-002  2.788139021798113E-002 
 2.823209493372354E-002  2.858721097173795E-002  2.894679381962784E-002  2.931089966294478E-002 
 2.967958539396753E-002  3.005290862059167E-002  3.043092767533088E-002  3.081370162443158E-002 
 3.120129027710206E-002  3.159375419485787E-002  3.199115470098460E-002  3.239355389011986E-002 
 3.280101463795566E-002  3.321360061106284E-002  3.363137627683908E-002  3.405440691358214E-002 
 3.448275862068965E-002  3.491649832898740E-002  3.535569381118722E-002  3.580041369247675E-002 
 3.625072746124224E-002  3.670670547992618E-002  3.716841899602179E-002  3.763594015320524E-002 
 3.810934200260856E-002  3.858869851423384E-002  3.907408458851126E-002  3.956557606800250E-002 
 4.006324974925116E-002  4.056718339478245E-002  4.107745574525376E-002  4.159414653175796E-002 
 4.211733648828173E-002  4.264710736432018E-002  4.318354193765052E-002  4.372672402726622E-002 
 4.427673850647384E-002  4.483367131615487E-002  4.539760947819386E-002  4.596864110907598E-002 
 4.654685543365531E-002  4.713234279909642E-002  4.772519468899144E-002  4.832550373765427E-002 
 4.893336374459510E-002  4.954886968917674E-002  5.017211774545521E-002  5.080320529720744E-002 
 5.144223095314727E-002  5.208929456233356E-002  5.274449722977172E-002  5.340794133221149E-002 
 5.407973053414376E-002  5.475996980399807E-002  5.544876543054427E-002  5.614622503950038E-002 
 5.685245761034925E-002  5.756757349336700E-002  5.829168442686523E-002  5.902490355465053E-002 
 5.976734544370332E-002  6.051912610207926E-002  6.128036299703582E-002  6.205117507338653E-002 
 6.283168277208655E-002  6.362200804905176E-002  6.442227439421457E-002  6.523260685081966E-002 
 6.605313203496195E-002  6.688397815537087E-002  6.772527503344306E-002  6.857715412352730E-002 
 6.943974853346473E-002  7.031319304538675E-002  7.119762413677544E-002  7.209318000178817E-002 
 7.300000057285086E-002  7.391822754252274E-002  7.484800438563596E-002  7.578947638171390E-002 
 7.674279063767135E-002  7.770809611080029E-002  7.868554363204497E-002  7.967528592956913E-002 
 8.067747765262041E-002  8.169227539569454E-002  8.271983772300338E-002  8.376032519325133E-002 
 8.481390038472245E-002  8.588072792068387E-002  8.696097449510862E-002  8.805480889872161E-002 
 8.916240204537403E-002  9.028392699874833E-002  9.141955899940027E-002  9.256947549214042E-002 
 9.373385615376018E-002  9.491288292110714E-002  9.610674001951212E-002  9.731561399157584E-002 
 9.853969372631606E-002  9.977917048868142E-002  1.010342379494381E-001  1.023050922154300E-001 
 1.035919318602218E-001  1.048949579551264E-001  1.062143741006218E-001  1.075503864581654E-001 
 1.089032037824058E-001  1.102730374538026E-001  1.116601015116539E-001  1.130646126875405E-001 
 1.144867904391914E-001  1.159268569847735E-001  1.173850373376144E-001  1.188615593413613E-001 
 1.203566537055807E-001  1.218705540418094E-001  1.234034969000545E-001  1.249557218057566E-001 
 1.265274712972154E-001  1.281189909634863E-001  1.297305294827557E-001  1.313623386611953E-001 
 1.330146734723094E-001  1.346877920967743E-001  1.363819559627785E-001  1.380974297868734E-001 
 1.398344816153337E-001  1.415933828660418E-001  1.433744083708969E-001  1.451778364187572E-001 
 1.470039487989249E-001  1.488530308451740E-001  1.507253714803364E-001  1.526212632614461E-001 
 1.545410024254505E-001  1.564848889355002E-001  1.584532265278169E-001  1.604463227591541E-001 
 1.624644890548533E-001  1.645080407575035E-001  1.665772971762167E-001  1.686725816365175E-001 
 1.707942215308660E-001  1.729425483698125E-001  1.751178978337959E-001  1.773206098255962E-001 
 1.795510285234431E-001  1.818095024347962E-001  1.840963844507993E-001  1.864120319014196E-001 
 1.887568066112829E-001  1.911310749562077E-001  1.935352079204536E-001  1.959695811546878E-001 
 1.984345750346804E-001  2.009305747207407E-001  2.034579702178972E-001  2.060171564368387E-001 
 2.086085332556190E-001  2.112325055821375E-001  2.138894834174094E-001  2.165798819196264E-001 
 2.193041214690286E-001  2.220626277335884E-001  2.248558317355211E-001  2.276841699186357E-001 
 2.305480842165266E-001  2.334480221216301E-001  2.363844367551442E-001  2.393577869378288E-001 
 2.423685372617000E-001  2.454171581626206E-001  2.485041259938091E-001  2.516299231002702E-001 
 2.547950378941604E-001  2.579999649311064E-001  2.612452049874776E-001  2.645312651386355E-001 
 2.678586588381647E-001  2.712279059980997E-001  2.746395330701649E-001  2.780940731280302E-001 
 2.815920659506085E-001  2.851340581063956E-001  2.887206030388712E-001  2.923522611529787E-001 
 2.960295999026861E-001  2.997531938796552E-001  3.035236249030211E-001  3.073414821103013E-001 
 3.112073620494528E-001  3.151218687720803E-001  3.190856139278238E-001  3.230992168599288E-001 
 3.271633047020182E-001  3.312785124760866E-001  3.354454831917202E-001  3.396648679465717E-001 
 3.439373260280940E-001  3.482635250165536E-001  3.526441408893451E-001  3.570798581266102E-001 
 3.615713698181921E-001  3.661193777719314E-001  3.707245926233226E-001  3.753877339465569E-001 
 3.801095303669519E-001  3.848907196748056E-001  3.897320489406755E-001  3.946342746321077E-001 
 3.995981627318415E-001  4.046244888574901E-001  4.097140383827378E-001  4.148676065600531E-001 
 4.200859986449473E-001  4.253700300218023E-001  4.307205263312694E-001  4.361383235992835E-001 
 4.416242683676911E-001  4.471792178265219E-001  4.528040399479321E-001  4.584996136218203E-001 
 4.642668287931624E-001  4.701065866010609E-001  4.760197995195550E-001  4.820073915001947E-001 
 4.880702981164072E-001  4.942094667096879E-001  5.004258565376181E-001  5.067204389237566E-001 
 5.130941974094086E-001  5.195481279073032E-001  5.260832388572131E-001  5.327005513835181E-001 
 5.394010994547646E-001  5.461859300452218E-001  5.530561032984715E-001  5.600126926930641E-001 
 5.670567852102435E-001  5.741894815037981E-001  5.814118960720361E-001  5.887251574319262E-001 
 5.961304082954367E-001  6.036288057480790E-001  6.112215214297119E-001  6.189097417176088E-001 
 6.266946679118299E-001  6.345775164229335E-001  6.425595189620350E-001  6.506419227332718E-001 
 6.588259906286782E-001  6.671130014255110E-001  6.755042499860696E-001  6.840010474600114E-001 
 6.926047214892299E-001  7.013166164152975E-001  7.101380934895185E-001  7.190705310856357E-001 
 7.281153249151940E-001  7.372738882456326E-001  7.465476521211061E-001  7.559380655860852E-001 
 7.654465959117815E-001  7.750747288254008E-001  7.848239687423010E-001  7.946958390010552E-001 
 8.046918821014731E-001  8.148136599456293E-001  8.250627540819018E-001  8.354407659521027E-001 
 8.459493171417025E-001  8.565900496332016E-001  8.673646260627034E-001  8.782747299796929E-001 
 8.893220661101056E-001  9.005083606226895E-001  9.118353613987173E-001  9.233048383051089E-001 
 9.349185834709623E-001  9.466784115675896E-001  9.585861600920583E-001  9.706436896542985E-001 
 9.828528842678386E-001  9.952156516441736E-001  1.007733923490860E+000  1.020409655813344E+000 
 1.033244829220587E+000  1.046241449234550E+000  1.059401546603550E+000  1.072727177619575E+000 
 1.086220424439585E+000  1.099883395410845E+000  1.113718225400370E+000  1.127727076128489E+000 
 1.141912136506631E+000  1.156275622979344E+000  1.170819779870605E+000  1.185546879734525E+000 
 1.200459223710415E+000  1.215559141882363E+000  1.230848993643307E+000  1.246331168063687E+000 
 1.262008084264760E+000  1.277882191796572E+000  1.293955971020724E+000  1.310231933497924E+000 
 1.326712622380418E+000  1.343400612809380E+000  1.360298512317260E+000  1.377408961235239E+000 
 1.394734633105774E+000  1.412278235100338E+000  1.430042508442442E+000  1.448030228835931E+000 
 1.466244206898717E+000  1.484687288601930E+000  1.503362355714604E+000  1.522272326253975E+000 
 1.541420154941409E+000  1.560808833664095E+000  1.580441391942535E+000  1.600320897403896E+000 
 1.620450456261357E+000  1.640833213799438E+000  1.661472354865476E+000  1.682371104367257E+000 
 1.703532727776903E+000  1.724960531641131E+000  1.746657864097885E+000  1.768628115399507E+000 
 1.790874718442465E+000  1.813401149303740E+000  1.836210927783990E+000  1.859307617957502E+000 
 1.882694828729112E+000  1.906376214398086E+000  1.930355475229109E+000  1.954636358030478E+000 
 1.979222656739525E+000  2.004118213015448E+000  2.029326916839568E+000  2.054852707123138E+000 
 2.080699572322830E+000  2.106871551063910E+000  2.133372732771306E+000  2.160207258308583E+000 
 2.187379320624943E+000  2.214893165410412E+000  2.242753091759207E+000  2.270963452841507E+000 
 2.299528656583628E+000  2.328453166356764E+000  2.357741501674421E+000  2.387398238898574E+000 
 2.417428011954754E+000  2.447835513056101E+000  2.478625493436520E+000  2.509802764093095E+000 
 2.541372196537788E+000  2.573338723558652E+000  2.605707339990575E+000  2.638483103495720E+000 
 2.671671135353827E+000  2.705276621262385E+000  2.739304812146942E+000  2.773761024981563E+000 
 2.808650643619591E+000  2.843979119634935E+000  2.879751973173837E+000  2.915974793817449E+000 
 2.952653241455195E+000  2.989793047169135E+000  3.027400014129480E+000  3.065480018501322E+000 
 3.104039010362821E+000  3.143083014634912E+000  3.182618132022686E+000  3.222650539968681E+000 
 3.263186493618074E+000  3.304232326796099E+000  3.345794452997705E+000  3.387879366389658E+000 
 3.430493642825308E+000  3.473643940872039E+000  3.517337002851713E+000  3.561579655894167E+000 
 3.606378813003939E+000  3.651741474140484E+000  3.697674727311882E+000  3.744185749682400E+000 
 3.791281808693918E+000  3.838970263201460E+000  3.887258564623080E+000  3.936154258104105E+000 
 3.985664983696126E+000  4.035798477550755E+000  4.086562573128391E+000  4.137965202422261E+000 
 4.190014397197758E+000  4.242718290247467E+000  4.296085116661912E+000  4.350123215116282E+000 
 4.404841029173415E+000  4.460247108603068E+000  4.516350110717883E+000  4.573158801726092E+000 
 4.630682058101225E+000  4.688928867969142E+000  4.747908332512369E+000  4.807629667392247E+000 
 4.868102204188862E+000  4.929335391859104E+000  4.991338798213143E+000  5.054122111409351E+000 
 5.117695141468158E+000  5.182067821804861E+000  5.247250210781711E+000  5.313252493279617E+000 
 5.380084982289486E+000  5.447758120523705E+000  5.516282482047816E+000  5.585668773932702E+000 
 5.655927837927655E+000  5.727070652154349E+000  5.799108332822256E+000  5.872052135965557E+000 
 5.945913459201874E+000  6.020703843513257E+000  6.096434975049394E+000  6.173118686953678E+000 
 6.250766961212116E+000  6.329391930525516E+000  6.409005880205322E+000  6.489621250093120E+000 
 6.571250636504482E+000  6.653906794197124E+000  6.737602638363826E+000  6.822351246650543E+000 
 6.908165861199718E+000  6.995059890719479E+000  7.083046912578737E+000  7.172140674928642E+000 
 7.262355098850853E+000  7.353704280532622E+000  7.446202493469452E+000  7.539864190695317E+000 
 7.634704007040937E+000  7.730736761420596E+000  7.827977459147521E+000  7.926441294278581E+000 
 8.026143651988354E+000  8.127100110973055E+000  8.229326445884823E+000  8.332838629796440E+000 
 8.437652836697255E+000  8.543785444020356E+000  8.651253035201538E+000  8.760072402270596E+000 
 8.870260548474999E+000  8.981834690936786E+000  9.094812263342734E+000  9.209210918668349E+000 
 9.325048531936311E+000  9.442343203009329E+000  9.561113259418413E+000  9.681377259226535E+000 
 9.803153993928309E+000  9.926462491386323E+000  1.005132201880414E+001  1.017775208573698E+001 
 1.030577244714002E+001  1.043540310645517E+001  1.056666431873671E+001  1.069957659381608E+001 
 1.083416069950670E+001  1.097043766484890E+001  1.110842878339574E+001  1.124815561654029E+001 
 1.138963999688444E+001  1.153290403165052E+001  1.167797010613543E+001  1.182486088720843E+001 
 1.197359932685293E+001  1.212420866575272E+001  1.227671243692342E+001  1.243113446938958E+001 
 1.258749889190789E+001  1.274583013673756E+001  1.290615294345766E+001  1.306849236283295E+001 
 1.323287376072801E+001  1.339932282207065E+001  1.356786555486540E+001  1.373852829425710E+001 
 1.391133770664604E+001  1.408632079385450E+001  1.426350489734582E+001  1.444291770249670E+001 
 1.462458724292292E+001  1.480854190485979E+001  1.499481043159754E+001  1.518342192797238E+001 
 1.537440586491440E+001  1.556779208405226E+001  1.576361080237617E+001  1.596189261695929E+001 
 1.616266850973852E+001  1.636596985235562E+001  1.657182841105895E+001  1.678027635166714E+001 
 1.699134624459506E+001  1.720507106994283E+001  1.742148422264929E+001  1.764061951770980E+001 
 1.786251119546007E+001  1.808719392692622E+001  1.831470281924211E+001  1.854507342113508E+001 
 1.877834172848032E+001  1.901454418992547E+001  1.925371771258573E+001  1.949589966781052E+001 
 1.974112789702317E+001  1.998944071763333E+001  2.024087692902444E+001  2.049547581861615E+001 
 2.075327716800284E+001  2.101432125916994E+001  2.127864888078771E+001  2.154630133458486E+001 
 2.181732044180186E+001  2.209174854972555E+001  2.236962853830617E+001  2.265100382685723E+001 
 2.293591838084006E+001  2.322441671873343E+001  2.351654391898950E+001  2.381234562707774E+001 
 2.411186806261675E+001  2.441515802659653E+001  2.472226290869103E+001  2.503323069466281E+001 
 2.534810997386117E+001  2.566694994681404E+001  2.598980043291591E+001  2.631671187821212E+001 
 2.664773536328103E+001  2.698292261121574E+001  2.732232599570559E+001  2.766599854921996E+001 
 2.801399397129462E+001  2.836636663692215E+001  2.872317160504858E+001  2.908446462717598E+001 
 2.945030215607419E+001  2.982074135460144E+001  3.019584010463607E+001  3.057565701612101E+001 
 3.096025143622132E+001  3.134968345859766E+001  3.174401393279590E+001  3.214330447375477E+001 