<UPF version="2.0.1">
  <PP_INFO>
    Generated using "atomic" code by A. Dal Corso  v.6.1 svn rev. 13369
    Author: ADC
    Generation date: 16Nov2017
    Pseudopotential type: USPP
    Element: Er
    Functional: PBE

    Suggested minimum cutoff for wavefunctions: 135. Ry
    Suggested minimum cutoff for charge density: 578. Ry
    The Pseudo was generated with a Scalar-Relativistic Calculation
    Local Potential by smoothing AE potential with Bessel fncs, cutoff radius:   1.7000
    Pseudopotential contains additional information for GIPAW reconstruction.

    Valence configuration: 
    nl pn  l   occ       Rcut    Rcut US       E pseu
    5S  1  0  2.00      1.200      1.500    -3.811571
    6S  2  0  2.00      1.200      1.500    -0.281541
    5P  2  1  6.00      1.300      1.800    -1.939034
    4D  3  2 10.00      1.000      1.100   -12.152829
    5D  4  2  0.00      1.000      1.100    -0.067155
    4F  4  3 12.00      1.000      1.200    -0.230380
    Generation configuration:
    5S  1  0  2.00      1.200      1.500    -3.811610
    6S  2  0  2.00      1.200      1.500    -0.281552
    5P  2  1  6.00      1.300      1.800    -1.939064
    6P  3  1  0.00      1.300      1.800     0.300000
    4D  3  2 10.00      1.000      1.100   -12.152880
    5D  4  2  0.00      1.000      1.100    -0.067172
    4F  4  3 12.00      1.000      1.200    -0.230426
    4F  4  3  0.00      1.000      1.200     1.000000

    Pseudization used: troullier-martins
<PP_INPUTFILE>
 &input
   title='Er',
   zed=68.0,
   rel=1,
   config='[Xe] 4f12.0 5d0.0 6s2. 6p0.',
   iswitch=3,
   dft='PBE'
 /
 &inputp
   lpaw=.false.,
   pseudotype=3,
   file_pseudopw='Er.pbe-spdfn-rrkjus_psl.1.0.0.UPF',
   author='ADC',
   lloc=-1,
   rcloc=1.7,
   which_augfun='PSQ',
   rmatch_augfun_nc=.true.,
   nlcc=.true.,
   new_core_ps=.true.,
   rcore=1.2,
   tm=.true.
 /
8
5S  1  0  2.00  0.00  1.20  1.50  0.0
6S  2  0  2.00  0.00  1.20  1.50  0.0
5P  2  1  6.00  0.00  1.30  1.80  0.0
6P  3  1  0.00  0.30  1.30  1.80  0.0
4D  3  2 10.00  0.00  1.00  1.10  0.0
5D  4  2  0.00  0.00  1.00  1.10  0.0
4F  4  3 12.00  0.00  1.00  1.20  0.0
4F  4  3  0.00  1.00  1.00  1.20  0.0
</PP_INPUTFILE>
  </PP_INFO>
  <!--                               -->
  <!-- END OF HUMAN READABLE SECTION -->
  <!--                               -->
  <PP_HEADER generated='Generated using "atomic" code by A. Dal Corso  v.6.1 svn rev. 13369'
             author="ADC"
             date="16Nov2017"
             comment=""
             element="Er"
             pseudo_type="USPP"
             relativistic="scalar"
             is_ultrasoft="T"
             is_paw="F"
             is_coulomb="F"
             has_so="F"
             has_wfc="F"
             has_gipaw="T"
             paw_as_gipaw="F"
             core_correction="T"
             functional="PBE"
             z_valence="3.200000000000000E+001"
             total_psenergy="-1.110975906083239E+003"
             wfc_cutoff="1.346265663861759E+002"
             rho_cutoff="5.780807849488274E+002"
             l_max="3"
             l_max_rho="6"
             l_local="-1"
             mesh_size="1267"
             number_of_wfc="6"
             number_of_proj="8"/>
  <PP_MESH dx="1.250000000000000E-002" mesh="1267" xmin="-7.000000000000000E+000" rmax="1.000000000000000E+002"
zmesh="6.800000000000000E+001">
    <PP_R type="real" size="1267" columns="4">
 1.341002890521347E-005  1.357870630395621E-005  1.374950540318503E-005  1.392245289060668E-005 
 1.409757578961794E-005  1.427490146352807E-005  1.445445761983439E-005  1.463627231455164E-005 
 1.482037395659574E-005  1.500679131222286E-005  1.519555350952407E-005  1.538669004297674E-005 
 1.558023077805309E-005  1.577620595588672E-005  1.597464619799791E-005  1.617558251107821E-005 
 1.637904629183534E-005  1.658506933189900E-005  1.679368382278835E-005  1.700492236094203E-005 
 1.721881795281139E-005  1.743540402001783E-005  1.765471440457501E-005  1.787678337417669E-005 
 1.810164562755119E-005  1.832933629988308E-005  1.855989096830315E-005  1.879334565744742E-005 
 1.902973684508600E-005  1.926910146782294E-005  1.951147692686752E-005  1.975690109387834E-005 
 2.000541231688079E-005  2.025704942625907E-005  2.051185174082351E-005  2.076985907395414E-005 
 2.103111173982168E-005  2.129565055968670E-005  2.156351686827799E-005  2.183475252025128E-005 
 2.210939989672901E-005  2.238750191192252E-005  2.266910201983750E-005  2.295424422106371E-005 
 2.324297306965025E-005  2.353533368006712E-005  2.383137173425451E-005  2.413113348876068E-005 
 2.443466578196962E-005  2.474201604141972E-005  2.505323229121432E-005  2.536836315952562E-005 
 2.568745788619294E-005  2.601056633041648E-005  2.633773897854808E-005  2.666902695197963E-005 
 2.700448201513099E-005  2.734415658353825E-005  2.768810373204378E-005  2.803637720308936E-005 
 2.838903141511337E-005  2.874612147105393E-005  2.910770316695877E-005  2.947383300070351E-005 
 2.984456818081962E-005  3.021996663543322E-005  3.060008702131661E-005  3.098498873305345E-005 
 3.137473191231924E-005  3.176937745727874E-005  3.216898703210125E-005  3.257362307659584E-005 
 3.298334881596769E-005  3.339822827069716E-005  3.381832626654317E-005  3.424370844467226E-005 
 3.467444127191519E-005  3.511059205115255E-005  3.555222893183093E-005  3.599942092061152E-005 
 3.645223789215233E-005  3.691075060002645E-005  3.737503068777733E-005  3.784515070011324E-005 
 3.832118409424263E-005  3.880320525135179E-005  3.929128948822721E-005  3.978551306902392E-005 
 4.028595321718189E-005  4.079268812749248E-005  4.130579697831636E-005  4.182535994395541E-005 
 4.235145820718005E-005  4.288417397191423E-005  4.342359047608009E-005  4.396979200460383E-005 
 4.452286390258552E-005  4.508289258863446E-005  4.564996556837219E-005  4.622417144810559E-005 
 4.680559994867157E-005  4.739434191945627E-005  4.799048935259042E-005  4.859413539732327E-005 
 4.920537437457753E-005  4.982430179168693E-005  5.045101435731962E-005  5.108560999658902E-005 
 5.172818786635483E-005  5.237884837071661E-005  5.303769317670192E-005  5.370482523015211E-005 
 5.438034877180783E-005  5.506436935359677E-005  5.575699385512659E-005  5.645833050038476E-005 
 5.716848887464897E-005  5.788757994161004E-005  5.861571606071016E-005  5.935301100469939E-005 
 6.009957997741274E-005  6.085553963177113E-005  6.162100808800852E-005  6.239610495212853E-005 
 6.318095133459323E-005  6.397566986924660E-005  6.478038473247656E-005  6.559522166261768E-005 
 6.642030797959803E-005  6.725577260483343E-005  6.810174608137126E-005  6.895836059428840E-005 
 6.982574999134526E-005  7.070404980389979E-005  7.159339726808475E-005  7.249393134625076E-005 
 7.340579274867965E-005  7.432912395557080E-005  7.526406923930369E-005  7.621077468698125E-005 
 7.716938822325566E-005  7.814005963344229E-005  7.912294058692382E-005  8.011818466084890E-005 
 8.112594736412899E-005  8.214638616173677E-005  8.317966049931041E-005  8.422593182806743E-005 
 8.528536363003149E-005  8.635812144357723E-005  8.744437288929550E-005  8.854428769618469E-005 
 8.965803772817115E-005  9.078579701096326E-005  9.192774175924355E-005  9.308405040420217E-005 
 9.425490362141739E-005  9.544048435908658E-005  9.664097786661195E-005  9.785657172354667E-005 
 9.908745586890393E-005  1.003338226308357E-004  1.015958667566843E-004  1.028737854434119E-004 
 1.041677783684136E-004  1.054780477207162E-004  1.068047982325719E-004  1.081482372114476E-004 
 1.095085745724167E-004  1.108860228709599E-004  1.122807973361759E-004  1.136931159044128E-004 
 1.151231992533202E-004  1.165712708363308E-004  1.180375569175759E-004  1.195222866072384E-004 
 1.210256918973534E-004  1.225480076980560E-004  1.240894718742872E-004  1.256503252829610E-004 
 1.272308118105976E-004  1.288311784114328E-004  1.304516751460038E-004  1.320925552202223E-004 
 1.337540750249386E-004  1.354364941760020E-004  1.371400755548283E-004  1.388650853494737E-004 
 1.406117930962280E-004  1.423804717217308E-004  1.441713975856151E-004  1.459848505236913E-004 
 1.478211138916704E-004  1.496804746094393E-004  1.515632232058934E-004  1.534696538643309E-004 
 1.554000644684214E-004  1.573547566487489E-004  1.593340358299434E-004  1.613382112784042E-004 
 1.633675961506221E-004  1.654225075421127E-004  1.675032665369614E-004  1.696101982579944E-004 
 1.717436319175802E-004  1.739039008690679E-004  1.760913426588768E-004  1.783062990792368E-004 
 1.805491162215946E-004  1.828201445306925E-004  1.851197388593235E-004  1.874482585237804E-004 
 1.898060673599981E-004  1.921935337804041E-004  1.946110308314844E-004  1.970589362520710E-004 
 1.995376325323667E-004  2.020475069737080E-004  2.045889517490826E-004  2.071623639644079E-004 
 2.097681457205773E-004  2.124067041762923E-004  2.150784516116798E-004  2.177838054927118E-004 
 2.205231885364370E-004  2.232970287770286E-004  2.261057596326681E-004  2.289498199732660E-004 
 2.318296541890366E-004  2.347457122599356E-004  2.376984498259687E-004  2.406883282583886E-004 
 2.437158147317832E-004  2.467813822970729E-004  2.498855099554277E-004  2.530286827331086E-004 
 2.562113917572576E-004  2.594341343326348E-004  2.626974140193240E-004  2.660017407114163E-004 
 2.693476307166791E-004  2.727356068372336E-004  2.761661984512413E-004  2.796399415956214E-004 
 2.831573790498078E-004  2.867190604205588E-004  2.903255422278350E-004  2.939773879917563E-004 
 2.976751683206528E-004  3.014194610002244E-004  3.052108510838197E-004  3.090499309838534E-004 
 3.129373005643702E-004  3.168735672347760E-004  3.208593460447467E-004  3.248952597803300E-004 
 3.289819390612588E-004  3.331200224394848E-004  3.373101564989549E-004  3.415529959566408E-004 
 3.458492037648398E-004  3.501994512147629E-004  3.546044180414246E-004  3.590647925298535E-004 
 3.635812716226382E-004  3.681545610288257E-004  3.727853753341904E-004  3.774744381128887E-004 
 3.822224820405198E-004  3.870302490086076E-004  3.918984902405219E-004  3.968279664088601E-004 
 4.018194477543025E-004  4.068737142059644E-004  4.119915555032621E-004  4.171737713193103E-004 
 4.224211713858740E-004  4.277345756198894E-004  4.331148142515778E-004  4.385627279541722E-004 
 4.440791679752721E-004  4.496649962698543E-004  4.553210856349543E-004  4.610483198460425E-004 
 4.668475937951170E-004  4.727198136305304E-004  4.786658968985798E-004  4.846867726868730E-004 
 4.907833817695012E-004  4.969566767540376E-004  5.032076222303829E-004  5.095371949214856E-004 
 5.159463838359565E-004  5.224361904226024E-004  5.290076287269069E-004  5.356617255494740E-004 
 5.423995206064709E-004  5.492220666920827E-004  5.561304298430159E-004  5.631256895050685E-004 
 5.702089387017942E-004  5.773812842052914E-004  5.846438467091370E-004  5.919977610034978E-004 
 5.994441761524445E-004  6.069842556734933E-004  6.146191777194105E-004  6.223501352622988E-004 
 6.301783362800028E-004  6.381050039448585E-004  6.461313768148150E-004  6.542587090269636E-004 
 6.624882704934974E-004  6.708213471001383E-004  6.792592409070606E-004  6.878032703523379E-004 
 6.964547704579548E-004  7.052150930384041E-004  7.140856069119114E-004  7.230676981143174E-004 
 7.321627701156462E-004  7.413722440394026E-004  7.506975588846237E-004  7.601401717507267E-004 
 7.697015580651821E-004  7.793832118140559E-004  7.891866457754432E-004  7.991133917558455E-004 
 8.091650008295185E-004  8.193430435808293E-004  8.296491103496669E-004  8.400848114799307E-004 
 8.506517775711542E-004  8.613516597332876E-004  8.721861298446870E-004  8.831568808133521E-004 
 8.942656268414407E-004  9.055141036931211E-004  9.169040689657862E-004  9.284373023646820E-004 
 9.401156059809937E-004  9.519408045734199E-004  9.639147458532994E-004  9.760393007733183E-004 
 9.883163638198494E-004  1.000747853308974E-003  1.013335711686214E-003  1.026081905830054E-003 
 1.038988427359259E-003  1.052057292944077E-003  1.065290544621345E-003  1.078690250113561E-003 
 1.092258503151969E-003  1.105997423803712E-003  1.119909158803093E-003  1.133995881887011E-003 
 1.148259794134606E-003  1.162703124311187E-003  1.177328129216479E-003  1.192137094037253E-003 
 1.207132332704394E-003  1.222316188254450E-003  1.237691033195741E-003  1.253259269879072E-003 
 1.269023330873096E-003  1.284985679344418E-003  1.301148809442461E-003  1.317515246689187E-003 
 1.334087548373714E-003  1.350868303951895E-003  1.367860135450934E-003  1.385065697879069E-003 
 1.402487679640436E-003  1.420128802955130E-003  1.437991824284559E-003  1.456079534762152E-003 
 1.474394760629467E-003  1.492940363677810E-003  1.511719241695389E-003  1.530734328920098E-003 
 1.549988596498005E-003  1.569485052947591E-003  1.589226744629843E-003  1.609216756224250E-003 
 1.629458211210794E-003  1.649954272357996E-003  1.670708142217114E-003  1.691723063622536E-003 
 1.713002320198486E-003  1.734549236872097E-003  1.756367180392936E-003  1.778459559859069E-003 
 1.800829827249735E-003  1.823481477964725E-003  1.846418051370549E-003  1.869643131353465E-003 
 1.893160346879474E-003  1.916973372561349E-003  1.941085929232798E-003  1.965501784529860E-003 
 1.990224753479599E-003  2.015258699096213E-003  2.040607532984637E-003  2.066275215951738E-003 
 2.092265758625201E-003  2.118583222080195E-003  2.145231718473933E-003  2.172215411688189E-003 
 2.199538517979928E-003  2.227205306640098E-003  2.255220100660713E-003  2.283587277410338E-003 
 2.312311269318054E-003  2.341396564566034E-003  2.370847707790837E-003  2.400669300793506E-003 
 2.430866003258626E-003  2.461442533482391E-003  2.492403669109856E-003  2.523754247881454E-003 
 2.555499168388899E-003  2.587643390840610E-003  2.620191937836743E-003  2.653149895153983E-003 
 2.686522412540217E-003  2.720314704519181E-003  2.754532051205251E-003  2.789179799128461E-003 
 2.824263362069915E-003  2.859788221907701E-003  2.895759929473442E-003  2.932184105419635E-003 
 2.969066441097875E-003  3.006412699448149E-003  3.044228715899305E-003  3.082520399280850E-003 
 3.121293732746222E-003  3.160554774707657E-003  3.200309659782838E-003  3.240564599753441E-003 
 3.281325884535733E-003  3.322599883163396E-003  3.364393044782684E-003  3.406711899660131E-003 
 3.449563060202909E-003  3.492953221992032E-003  3.536889164828561E-003  3.581377753792953E-003 
 3.626425940317744E-003  3.672040763273731E-003  3.718229350069801E-003  3.764998917766619E-003 
 3.812356774204289E-003  3.860310319144227E-003  3.908867045425393E-003  3.958034540135057E-003 
 4.007820485794304E-003  4.058232661558430E-003  4.109278944432463E-003  4.160967310501956E-003 
 4.213305836179266E-003  4.266302699465520E-003  4.319966181228425E-003  4.374304666496187E-003 
 4.429326645767681E-003  4.485040716339107E-003  4.541455583647352E-003  4.598580062630205E-003 
 4.656423079103726E-003  4.714993671156925E-003  4.774300990563966E-003  4.834354304214179E-003 
 4.895162995559995E-003  4.956736566083154E-003  5.019084636779323E-003  5.082216949661390E-003 
 5.146143369281698E-003  5.210873884273365E-003  5.276418608911056E-003  5.342787784691346E-003 
 5.409991781932975E-003  5.478041101397250E-003  5.546946375928780E-003  5.616718372116899E-003 
 5.687367991977964E-003  5.758906274658809E-003  5.831344398161661E-003  5.904693681090688E-003 
 5.978965584420578E-003  6.054171713287335E-003  6.130323818801594E-003  6.207433799884788E-003 
 6.285513705128335E-003  6.364575734676287E-003  6.444632242131611E-003  6.525695736486469E-003 
 6.607778884076789E-003  6.690894510561378E-003  6.775055602925972E-003  6.860275311512481E-003 
 6.946566952073746E-003  7.033944007854179E-003  7.122420131696510E-003  7.212009148175094E-003 
 7.302725055756028E-003  7.394582028984425E-003  7.487594420699254E-003  7.581776764275946E-003 
 7.677143775897300E-003  7.773710356852907E-003  7.871491595867504E-003  7.970502771458636E-003 
 8.070759354323921E-003  8.172277009758408E-003  8.275071600102296E-003  8.379159187219456E-003 
 8.484556035007158E-003  8.591278611937295E-003  8.699343593629639E-003  8.808767865457437E-003 
 8.919568525185786E-003  9.031762885643205E-003  9.145368477426769E-003  9.260403051641329E-003 
 9.376884582673144E-003  9.494831270998413E-003  9.614261546027167E-003  9.735194068982857E-003 
 9.857647735818230E-003  9.981641680167866E-003  1.010719527633783E-002  1.023432814233297E-002 
 1.036306014292226E-002  1.049341139274269E-002  1.062540225944224E-002  1.075905336686238E-002 
 1.089438559826056E-002  1.103142009957327E-002  1.117017828272013E-002  1.131068182894958E-002 
 1.145295269222654E-002  1.159701310266289E-002  1.174288556999084E-002  1.189059288708019E-002 
 1.204015813349974E-002  1.219160467912354E-002  1.234495618778246E-002  1.250023662096174E-002 
 1.265747024154497E-002  1.281668161760527E-002  1.297789562624405E-002  1.314113745747817E-002 
 1.330643261817588E-002  1.347380693604232E-002  1.364328656365520E-002  1.381489798255111E-002 
 1.398866800736344E-002  1.416462379001209E-002  1.434279282394608E-002  1.452320294843944E-002 
 1.470588235294118E-002  1.489085958147992E-002  1.507816353712396E-002  1.526782348649743E-002 
 1.545986906435331E-002  1.565433027820382E-002  1.585123751300929E-002  1.605062153592576E-002 
 1.625251350111247E-002  1.645694495459973E-002  1.666394783921803E-002  1.687355449958930E-002 
 1.708579768718064E-002  1.730071056542193E-002  1.751832671488763E-002  1.773868013854383E-002 
 1.796180526706133E-002  1.818773696419537E-002  1.841651053223331E-002  1.864816171751059E-002 
 1.888272671599620E-002  1.912024217894840E-002  1.936074521864150E-002  1.960427341416476E-002 
 1.985086481729418E-002  2.010055795843818E-002  2.035339185265811E-002  2.060940600576432E-002 
 2.086864042048909E-002  2.113113560273714E-002  2.139693256791472E-002  2.166607284733847E-002 
 2.193859849472457E-002  2.221455209275990E-002  2.249397675975559E-002  2.277691615638431E-002 
 2.306341449250249E-002  2.335351653405800E-002  2.364726761008505E-002  2.394471361978693E-002 
 2.424590103970777E-002  2.455087693099475E-002  2.485968894675135E-002  2.517238533948331E-002 
 2.548901496863818E-002  2.580962730823969E-002  2.613427245461822E-002  2.646300113423837E-002 
 2.679586471162515E-002  2.713291519738972E-002  2.747420525635621E-002  2.781978821579074E-002 
 2.816971807373378E-002  2.852404950743757E-002  2.888283788190954E-002  2.924613925856312E-002 
 2.961401040397760E-002  2.998650879876788E-002  3.036369264656599E-002  3.074562088311554E-002 
 3.113235318548051E-002  3.152394998136999E-002  3.192047245858004E-002  3.232198257455446E-002 
 3.272854306606572E-002  3.314021745901777E-002  3.355707007837212E-002  3.397916605819860E-002 
 3.440657135185282E-002  3.483935274228150E-002  3.527757785245732E-002  3.572131515594542E-002 
 3.617063398760222E-002  3.662560455440930E-002  3.708629794644338E-002  3.755278614798422E-002 
 3.802514204876245E-002  3.850343945534856E-002  3.898775310268541E-002  3.947815866576577E-002 
 3.997473277145654E-002  4.047755301047216E-002  4.098669794949782E-002  4.150224714346617E-002 
 4.202428114798773E-002  4.255288153193766E-002  4.308813089020154E-002  4.363011285658042E-002 
 4.417891211685929E-002  4.473461442203920E-002  4.529730660173575E-002  4.586707657774699E-002 
 4.644401337779072E-002  4.702820714941580E-002  4.761974917408769E-002  4.821873188145108E-002 
 4.882524886377281E-002  4.943939489056515E-002  5.006126592339438E-002  5.069095913087467E-002 
 5.132857290385061E-002  5.197420687077167E-002  5.262796191325853E-002  5.328994018186678E-002 
 5.396024511204774E-002  5.463898144031035E-002  5.532625522058698E-002  5.602217384080386E-002 
 5.672684603966137E-002  5.744038192362434E-002  5.816289298412614E-002  5.889449211499014E-002 
 5.963529363006877E-002  6.038541328110605E-002  6.114496827582368E-002  6.191407729623471E-002 
 6.269286051718856E-002  6.348143962514771E-002  6.427993783720230E-002  6.508847992032261E-002 
 6.590719221085389E-002  6.673620263425746E-002  6.757564072509838E-002  6.842563764728631E-002 
 6.928632621456977E-002  7.015784091128828E-002  7.104031791338652E-002  7.193389510969127E-002 
 7.283871212345755E-002  7.375491033418474E-002  7.468263289970709E-002  7.562202477856311E-002 
 7.657323275264485E-002  7.753640545013367E-002  7.851169336872323E-002  7.949924889913480E-002 
 8.049922634892949E-002  8.151178196661800E-002  8.253707396607581E-002  8.357526255126393E-002 
 8.462650994126075E-002  8.569098039560999E-002  8.676884023998556E-002  8.786025789218120E-002 
 8.896540388842573E-002  9.008445091002922E-002  9.121757381036576E-002  9.236494964219362E-002 
 9.352675768532102E-002  9.470317947461859E-002  9.589439882838401E-002  9.710060187706521E-002 
 9.832197709234224E-002  9.955871531657755E-002  1.008110097926350E-001  1.020790561940740E-001 
 1.033630526557250E-001  1.046631998046470E-001  1.059797007914774E-001  1.073127613221741E-001 
 1.086625896901566E-001  1.100293968088542E-001  1.114133962446595E-001  1.128148042503004E-001 
 1.142338397986291E-001  1.156707246168366E-001  1.171256832210997E-001  1.185989429516599E-001 
 1.200907340083477E-001  1.216012894865511E-001  1.231308454136363E-001  1.246796407858291E-001 
 1.262479176055573E-001  1.278359209192647E-001  1.294438988557002E-001  1.310721026646873E-001 
 1.327207867563843E-001  1.343902087410342E-001  1.360806294692189E-001  1.377923130726167E-001 
 1.395255270052724E-001  1.412805420853899E-001  1.430576325376454E-001  1.448570760360380E-001 
 1.466791537472754E-001  1.485241503747067E-001  1.503923542028090E-001  1.522840571422308E-001 
 1.541995547754055E-001  1.561391464027355E-001  1.581031350893582E-001  1.600918277125022E-001 
 1.621055350094354E-001  1.641445716260201E-001  1.662092561658763E-001  1.682999112401636E-001 
 1.704168635179912E-001  1.725604437774590E-001  1.747309869573440E-001  1.769288322094344E-001 
 1.791543229515217E-001  1.814078069210627E-001  1.836896362295120E-001  1.860001674173415E-001 
 1.883397615097506E-001  1.907087840730755E-001  1.931076052719122E-001  1.955365999269528E-001 
 1.979961475735545E-001  2.004866325210407E-001  2.030084439127514E-001  2.055619757868478E-001 
 2.081476271378795E-001  2.107658019791316E-001  2.134169094057489E-001  2.161013636586609E-001 
 2.188195841893066E-001  2.215719957251734E-001  2.243590283361644E-001  2.271811175017945E-001 
 2.300387041792378E-001  2.329322348722269E-001  2.358621617008188E-001  2.388289424720420E-001 
 2.418330407514274E-001  2.448749259354433E-001  2.479550733248390E-001  2.510739641989097E-001 
 2.542320858907010E-001  2.574299318631513E-001  2.606680017862006E-001  2.639468016148626E-001 
 2.672668436682804E-001  2.706286467097805E-001  2.740327360279267E-001  2.774796435186012E-001 
 2.809699077681128E-001  2.845040741373502E-001  2.880826948470003E-001  2.917063290638284E-001 
 2.953755429880540E-001  2.990909099418180E-001  3.028530104587652E-001  3.066624323747564E-001 
 3.105197709197151E-001  3.144256288106374E-001  3.183806163457658E-001  3.223853514999481E-001 
 3.264404600212010E-001  3.305465755284798E-001  3.347043396106872E-001  3.389144019269206E-001 
 3.431774203079812E-001  3.474940608591655E-001  3.518649980643405E-001  3.562909148913379E-001 
 3.607725028986672E-001  3.653104623435713E-001  3.699055022914470E-001  3.745583407266337E-001 
 3.792697046646039E-001  3.840403302655587E-001  3.888709629494529E-001  3.937623575124729E-001 
 3.987152782449692E-001  4.037304990508838E-001  4.088088035686719E-001  4.139509852937449E-001 
 4.191578477024606E-001  4.244302043776623E-001  4.297688791358080E-001  4.351747061556909E-001 
 4.406485301087798E-001  4.461912062912053E-001  4.518036007573961E-001  4.574865904554068E-001 
 4.632410633639407E-001  4.690679186310956E-001  4.749680667148636E-001  4.809424295253849E-001 
 4.869919405690046E-001  4.931175450941319E-001  4.993202002389346E-001  5.056008751809005E-001 
 5.119605512882655E-001  5.184002222733609E-001  5.249208943478810E-001  5.315235863801020E-001 
 5.382093300540888E-001  5.449791700308911E-001  5.518341641117793E-001  5.587753834035265E-001 
 5.658039124857668E-001  5.729208495804708E-001  5.801273067235375E-001  5.874244099385578E-001 
 5.948132994127564E-001  6.022951296751442E-001  6.098710697769237E-001  6.175423034741472E-001 
 6.253100294126880E-001  6.331754613155288E-001  6.411398281724046E-001  6.492043744318424E-001 
 6.573703601956008E-001  6.656390614155701E-001  6.740117700931400E-001  6.824897944810732E-001 
 6.910744592879317E-001  6.997671058850544E-001  7.085690925161591E-001  7.174817945095656E-001 
 7.265066044930910E-001  7.356449326116590E-001  7.448982067476274E-001  7.542678727439074E-001 
 7.637553946298749E-001  7.733622548501243E-001  7.830899544961132E-001  7.929400135406995E-001 
 8.029139710756505E-001  8.130133855521248E-001  8.232398350241787E-001  8.335949173953511E-001 
 8.440802506683270E-001  8.546974731977645E-001  8.654482439462862E-001  8.763342427436910E-001 
 8.873571705494420E-001  8.985187497184319E-001  9.098207242701160E-001  9.212648601610135E-001 
 9.328529455606374E-001  9.445867911309110E-001  9.564682303090737E-001  9.684991195941720E-001 
 9.806813388371355E-001  9.930167915345022E-001  1.005507405125856E+000  1.018155131294980E+000 
 1.030961946274821E+000  1.043929851156278E+000  1.057060872200869E+000  1.070357061157349E+000 
 1.083820495582292E+000  1.097453279164719E+000  1.111257542054804E+000  1.125235441196704E+000 
 1.139389160665603E+000  1.153720912008958E+000  1.168232934592078E+000  1.182927495948019E+000 
 1.197806892131885E+000  1.212873448079605E+000  1.228129517971195E+000  1.243577485598618E+000 
 1.259219764738245E+000  1.275058799528013E+000  1.291097064849337E+000  1.307337066713799E+000 
 1.323781342654732E+000  1.340432462123712E+000  1.357293026892028E+000  1.374365671457232E+000 
 1.391653063454767E+000  1.409157904074807E+000  1.426882928484315E+000  1.444830906254413E+000 
 1.463004641793146E+000  1.481406974783664E+000  1.500040780627937E+000  1.518908970896042E+000 
 1.538014493781092E+000  1.557360334559912E+000  1.576949516059479E+000  1.596785099129259E+000 
 1.616870183119465E+000  1.637207906365329E+000  1.657801446677490E+000  1.678654021838515E+000 
 1.699768890105701E+000  1.721149350720175E+000  1.742798744422402E+000  1.764720453974199E+000 
 1.786917904687279E+000  1.809394564958479E+000  1.832153946811698E+000  1.855199606446650E+000 
 1.878535144794545E+000  1.902164208080720E+000  1.926090488394391E+000  1.950317724265539E+000 
 1.974849701249052E+000  1.999690252516252E+000  2.024843259453805E+000  2.050312652270223E+000 
 2.076102410609956E+000  2.102216564175206E+000  2.128659193355605E+000  2.155434429865753E+000 
 2.182546457390832E+000  2.209999512240309E+000  2.237797884009847E+000  2.265945916251602E+000 
 2.294448007152869E+000  2.323308610223345E+000  2.352532234990981E+000  2.382123447706594E+000 
 2.412086872057382E+000  2.442427189889354E+000  2.473149141938904E+000  2.504257528573546E+000 
 2.535757210541976E+000  2.567653109733595E+000  2.599950209947536E+000  2.632653557671421E+000 
 2.665768262869873E+000  2.699299499782941E+000  2.733252507734623E+000  2.767632591951478E+000 
 2.802445124391618E+000  2.837695544584068E+000  2.873389360478690E+000  2.909532149306849E+000 
 2.946129558452821E+000  2.983187306336248E+000  3.020711183305638E+000  3.058707052543097E+000 
 3.097180850980511E+000  3.136138590227148E+000  3.175586357509031E+000  3.215530316620062E+000 
 3.255976708885105E+000  3.296931854135254E+000  3.338402151695266E+000  3.380394081383512E+000 
 3.422914204524445E+000  3.465969164973803E+000  3.509565690156763E+000  3.553710592119070E+000 
 3.598410768591476E+000  3.643673204067505E+000  3.689504970894773E+000  3.735913230380107E+000 
 3.782905233908455E+000  3.830488324075982E+000  3.878669935837342E+000  3.927457597667384E+000 
 3.976858932737544E+000  4.026881660106920E+000  4.077533595928441E+000  4.128822654670140E+000 
 4.180756850351778E+000  4.233344297797109E+000  4.286593213901767E+000  4.340511918917239E+000 
 4.395108837750890E+000  4.450392501282351E+000  4.506371547696538E+000  4.563054723833329E+000 
 4.620450886554327E+000  4.678569004126736E+000  4.737418157624655E+000  4.797007542348063E+000 
 4.857346469259543E+000  4.918444366439192E+000  4.980310780557758E+000  5.042955378368299E+000 
 5.106387948216693E+000  5.170618401571012E+000  5.235656774570280E+000  5.301513229592613E+000 
 5.368198056843072E+000  5.435721675961607E+000  5.504094637651061E+000  5.573327625325817E+000 
 5.643431456781062E+000  5.714417085883071E+000  5.786295604280831E+000  5.859078243139058E+000 
 5.932776374893163E+000  6.007401515026184E+000  6.082965323868071E+000  6.159479608417710E+000 
 6.236956324187714E+000  6.315407577072557E+000  6.394845625240127E+000  6.475282881047043E+000 
 6.556731912978200E+000  6.639205447610522E+000  6.722716371601602E+000  6.807277733703229E+000 
 6.892902746800250E+000  6.979604789975190E+000  7.067397410598667E+000  7.156294326446282E+000 
 7.246309427842012E+000  7.337456779828559E+000  7.429750624365139E+000  7.523205382552709E+000 
 7.617835656887382E+000  7.713656233542065E+000  7.810682084676781E+000  7.908928370778197E+000 
 8.008410443028374E+000  8.109143845703512E+000  8.211144318602734E+000  8.314427799507429E+000 
 8.419010426671646E+000  8.524908541343624E+000  8.632138690319248E+000  8.740717628527474E+000 
 8.850662321648269E+000  8.961989948763648E+000  9.074717905041819E+000  9.188863804455307E+000 
 9.304445482533149E+000  9.421480999147660E+000  9.539988641336455E+000  9.659986926159704E+000 
 9.781494603593556E+000  9.904530659459844E+000  1.002911431839258E+001  1.015526504684198E+001 
 1.028300255611597E+001  1.041234680546028E+001  1.054331800517706E+001  1.067593661978267E+001 
 1.081022337120550E+001  1.094619924202363E+001  1.108388547874355E+001  1.122330359511988E+001 
 1.136447537551691E+001  1.150742287831260E+001  1.165216843934503E+001  1.179873467540263E+001 