<UPF version="2.0.1">
  <PP_INFO>
    Generated using "atomic" code by A. Dal Corso  v.6.1 svn rev. 13369
    Author: ADC
    Generation date: 16Nov2017
    Pseudopotential type: PAW
    Element:  K
    Functional:  SLA  PW   PBX  PBC

    Suggested minimum cutoff for wavefunctions:  41. Ry
    Suggested minimum cutoff for charge density: 277. Ry
    The Pseudo was generated with a Scalar-Relativistic Calculation
    Local Potential by smoothing AE potential with Bessel fncs, cutoff radius:   1.5000
    Pseudopotential contains additional information for GIPAW reconstruction.

    Valence configuration: 
    nl pn  l   occ       Rcut    Rcut US       E pseu
    3S  1  0  2.00      1.200      1.300    -2.597651
    4S  2  0  1.00      1.200      1.300    -0.170438
    3P  2  1  6.00      1.400      1.600    -1.382755
    4P  3  1  0.00      1.400      1.600    -0.059133
    Generation configuration:
    3S  1  0  2.00      1.200      1.300    -2.597648
    4S  2  0  1.00      1.200      1.300    -0.170440
    3P  2  1  6.00      1.400      1.600    -1.382755
    4P  3  1  0.00      1.400      1.600    -0.059133
    3D  3  2  0.00      1.200      1.700     0.050000
    3D  3  2  0.00      1.200      1.700     1.000000

    Pseudization used: troullier-martins
<PP_INPUTFILE>
 &input
   title='K',
   zed=19.,
   rel=1,
   config='[Ar] 4s1 4p0 3d-1',
   iswitch=3,
   dft='PBE'
 /
 &inputp
   lpaw=.true.,
   pseudotype=3,
   file_pseudopw='K.pbe-spn-kjpaw_psl.1.0.0.UPF',
   author='ADC',
   lloc=-1,
   rcloc=1.5,
   which_augfun='PSQ',
   rmatch_augfun_nc=.true.,
   nlcc=.true.,
   new_core_ps=.true.,
   rcore=1.0,
   tm=.true.
 /
6
3S  1  0  2.00  0.00  1.20  1.30  0.0
4S  2  0  1.00  0.00  1.20  1.30  0.0
3P  2  1  6.00  0.00  1.40  1.60  0.0
4P  3  1  0.00  0.00  1.40  1.60  0.0
3D  3  2  0.00  0.05  1.20  1.70  0.0
3D  3  2  0.00  1.00  1.20  1.70  0.0
</PP_INPUTFILE>
  </PP_INFO>
  <!--                               -->
  <!-- END OF HUMAN READABLE SECTION -->
  <!--                               -->
  <PP_HEADER generated='Generated using "atomic" code by A. Dal Corso  v.6.1 svn rev. 13369'
             author="ADC"
             date="16Nov2017"
             comment=""
             element=" K"
             pseudo_type="PAW"
             relativistic="scalar"
             is_ultrasoft="T"
             is_paw="T"
             is_coulomb="F"
             has_so="F"
             has_wfc="T"
             has_gipaw="T"
             paw_as_gipaw="T"
             core_correction="T"
             functional=" SLA  PW   PBX  PBC"
             z_valence="9.000000000000000E+000"
             total_psenergy="-1.129365736198770E+002"
             wfc_cutoff="4.087562158291842E+001"
             rho_cutoff="2.773005480504770E+002"
             l_max="2"
             l_max_rho="4"
             l_local="-1"
             mesh_size="1165"
             number_of_wfc="4"
             number_of_proj="6"/>
  <PP_MESH dx="1.250000000000000E-002" mesh="1165" xmin="-7.000000000000000E+000" rmax="1.000000000000000E+002"
zmesh="1.900000000000000E+001">
    <PP_R type="real" size="1165" columns="4">
 4.799378766076401E-005  4.859747519310643E-005  4.920875617982012E-005  4.982772613480284E-005 
 5.045448177336946E-005  5.108912102736363E-005  5.173174306045993E-005  5.238244828365849E-005 
 5.304133837097423E-005  5.370851627532393E-005  5.438408624461248E-005  5.506815383802203E-005 
 5.576082594250580E-005  5.646221078948931E-005  5.717241797178200E-005  5.789155846070096E-005 
 5.861974462341070E-005  5.935709024048065E-005  6.010371052366355E-005  6.085972213389778E-005 
 6.162524319953550E-005  6.240039333480067E-005  6.318529365847899E-005  6.398006681284288E-005 
 6.478483698281478E-005  6.559972991537103E-005  6.642487293919024E-005  6.726039498454865E-005 
 6.810642660346569E-005  6.896309999010316E-005  6.983054900142061E-005  7.070890917809089E-005 
 7.159831776567863E-005  7.249891373608511E-005  7.341083780926309E-005  7.433423247520430E-005 
 7.526924201620391E-005  7.621601252940503E-005  7.717469194962648E-005  7.814543007247826E-005 
 7.912837857776697E-005  8.012369105319640E-005  8.113152301836581E-005  8.215203194907012E-005 
 8.318537730190616E-005  8.423172053918760E-005  8.529122515417404E-005  8.636405669661716E-005 
 8.745038279862811E-005  8.855037320087060E-005  8.966419977908284E-005  9.079203657093380E-005 
 9.193405980321683E-005  9.309044791938530E-005  9.426138160743525E-005  9.544704382813765E-005 
 9.664761984362669E-005  9.786329724634742E-005  9.909426598836723E-005  1.003407184110567E-004 
 1.016028492751426E-004  1.028808557911404E-004  1.041749376501683E-004  1.054852970551494E-004 
 1.068121387524071E-004  1.081556700636557E-004  1.095161009183963E-004  1.108936438867176E-004 
 1.122885142125110E-004  1.137009298471029E-004  1.151311114833097E-004  1.165792825899219E-004 
 1.180456694466212E-004  1.195305011793372E-004  1.210340097960493E-004  1.225564302230376E-004 
 1.240980003415912E-004  1.256589610251776E-004  1.272395561770791E-004  1.288400327685044E-004 
 1.304606408771768E-004  1.321016337264105E-004  1.337632677246768E-004  1.354458025056684E-004 
 1.371495009688683E-004  1.388746293206274E-004  1.406214571157606E-004  1.423902572996646E-004 
 1.441813062509668E-004  1.459948838247099E-004  1.478312733960796E-004  1.496907619046825E-004 
 1.515736398993812E-004  1.534802015836930E-004  1.554107448617604E-004  1.573655713848979E-004 
 1.593449865987271E-004  1.613492997909023E-004  1.633788241394373E-004  1.654338767616411E-004 
 1.675147787636667E-004  1.696218552906856E-004  1.717554355776920E-004  1.739158530009464E-004 
 1.761034451300669E-004  1.783185537807743E-004  1.805615250683018E-004  1.828327094614765E-004 
 1.851324618374804E-004  1.874611415373016E-004  1.898191124218805E-004  1.922067429289654E-004 
 1.946244061306806E-004  1.970724797918200E-004  1.995513464288741E-004  2.020613933697981E-004 
 2.046030128145332E-004  2.071766018962886E-004  2.097825627435942E-004  2.124213025431347E-004 
 2.150932336033719E-004  2.177987734189704E-004  2.205383447360305E-004  2.233123756181442E-004 
 2.261212995132810E-004  2.289655553215142E-004  2.318455874636003E-004  2.347618459504211E-004 
 2.377147864532982E-004  2.407048703751933E-004  2.437325649228024E-004  2.467983431795585E-004 
 2.499026841795515E-004  2.530460729823782E-004  2.562290007489349E-004  2.594519648181606E-004 
 2.627154687847483E-004  2.660200225778323E-004  2.693661425406658E-004  2.727543515113013E-004 
 2.761851789042834E-004  2.796591607933724E-004  2.831768399953063E-004  2.867387661546171E-004 
 2.903454958295143E-004  2.939975925788474E-004  2.976956270501636E-004  3.014401770688729E-004 
 3.052318277285338E-004  3.090711714822764E-004  3.129588082353734E-004  3.168953454389768E-004 
 3.208813981850336E-004  3.249175893023948E-004  3.290045494541348E-004  3.331429172360920E-004 
 3.373333392766517E-004  3.415764703377835E-004  3.458729734173480E-004  3.502235198526934E-004 
 3.546287894255509E-004  3.590894704682541E-004  3.636062599712912E-004  3.681798636922111E-004 
 3.728109962659013E-004  3.775003813162473E-004  3.822487515692048E-004  3.870568489672861E-004 
 3.919254247854915E-004  3.968552397486988E-004  4.018470641505243E-004  4.069016779736879E-004 
 4.120198710118828E-004  4.172024429931839E-004  4.224502037050085E-004  4.277639731206427E-004 
 4.331445815273700E-004  4.385928696562005E-004  4.441096888132385E-004  4.496959010127024E-004 
 4.553523791116123E-004  4.610800069461804E-004  4.668796794699084E-004  4.727523028934271E-004 
 4.786987948260960E-004  4.847200844193758E-004  4.908171125120172E-004  4.969908317770638E-004 
 5.032422068707108E-004  5.095722145830365E-004  5.159818439906225E-004  5.224720966111059E-004 
 5.290439865596624E-004  5.356985407074668E-004  5.424367988421447E-004  5.492598138302371E-004 
 5.561686517817187E-004  5.631643922165752E-004  5.702481282334816E-004  5.774209666806046E-004 
 5.846840283285424E-004  5.920384480454560E-004  5.994853749743883E-004  6.070259727128222E-004 
 6.146614194944975E-004  6.223929083735062E-004  6.302216474107170E-004  6.381488598625315E-004 
 6.461757843720230E-004  6.543036751624785E-004  6.625338022333684E-004  6.708674515587931E-004 
 6.793059252884143E-004  6.878505419509200E-004  6.965026366600495E-004  7.052635613232015E-004 
 7.141346848526807E-004  7.231173933795865E-004  7.322130904704010E-004  7.414231973463019E-004 
 7.507491531052240E-004  7.601924149467304E-004  7.697544583996959E-004  7.794367775528631E-004 
 7.892408852883009E-004  7.991683135177867E-004  8.092206134221807E-004  8.193993556937942E-004 
 8.297061307818151E-004  8.401425491408222E-004  8.507102414824144E-004  8.614108590300225E-004 
 8.722460737769081E-004  8.832175787474189E-004  8.943270882615307E-004  9.055763382027044E-004 
 9.169670862891324E-004  9.285011123483770E-004  9.401802185954755E-004  9.520062299145427E-004 
 9.639809941439042E-004  9.761063823648360E-004  9.883842891939163E-004  1.000816633079066E-003 
 1.013405356599312E-003  1.026152426768316E-003  1.039059835341725E-003  1.052129599128391E-003 
 1.065363760305494E-003  1.078764386737645E-003  1.092333572299987E-003  1.106073437205370E-003 
 1.119986128335641E-003  1.134073819577093E-003  1.148338712160146E-003  1.162783035003286E-003 
 1.177409045061347E-003  1.192219027678156E-003  1.207215296943628E-003  1.222400196055346E-003 
 1.237776097684690E-003  1.253345404347573E-003  1.269110548779836E-003  1.285073994317370E-003 
 1.301238235281021E-003  1.317605797366323E-003  1.334179238038155E-003  1.350961146930339E-003 
 1.367954146250281E-003  1.385160891188701E-003  1.402584070334499E-003  1.420226406094868E-003 
 1.438090655120661E-003  1.456179608737136E-003  1.474496093380096E-003  1.493042971037532E-003 
 1.511823139696812E-003  1.530839533797499E-003  1.550095124689857E-003  1.569592921099143E-003 
 1.589335969595711E-003  1.609327355071058E-003  1.629570201219836E-003  1.650067671027941E-003 
 1.670822967266734E-003  1.691839332993477E-003  1.713120052058075E-003  1.734668449616177E-003 
 1.756487892648741E-003  1.778581790488135E-003  1.800953595350844E-003  1.823606802876896E-003 
 1.846544952676055E-003  1.869771628880893E-003  1.893290460706825E-003  1.917105123019170E-003 
 1.941219336907369E-003  1.965636870266401E-003  1.990361538385531E-003  2.015397204544456E-003 
 2.040747780616948E-003  2.066417227682095E-003  2.092409556643227E-003  2.118728828854624E-003 
 2.145379156756117E-003  2.172364704515661E-003  2.199689688679996E-003  2.227358378833490E-003 
 2.255375098265273E-003  2.283744224644757E-003  2.312470190705654E-003  2.341557484938606E-003 
 2.371010652292517E-003  2.400834294884706E-003  2.431033072720006E-003  2.461611704418894E-003 
 2.492574967954786E-003  2.523927701400604E-003  2.555674803684735E-003  2.587821235356504E-003 
 2.620372019361260E-003  2.653332241825230E-003  2.686707052850232E-003  2.720501667318390E-003 
 2.754721365706968E-003  2.789371494913463E-003  2.824457469091060E-003  2.859984770494605E-003 
 2.895958950337224E-003  2.932385629657705E-003  2.969270500198808E-003  3.006619325296594E-003 
 3.044437940780973E-003  3.082732255887555E-003  3.121508254180985E-003  3.160771994489892E-003 
 3.200529611853577E-003  3.240787318480644E-003  3.281551404719656E-003  3.322828240042020E-003 
 3.364624274037240E-003  3.406946037420661E-003  3.449800143053914E-003  3.493193286978192E-003 
 3.537132249460514E-003  3.581623896053168E-003  3.626675178666452E-003  3.672293136654930E-003 
 3.718484897917349E-003  3.765257680010380E-003  3.812618791276392E-003  3.860575631985375E-003 
 3.909135695491259E-003  3.958306569402759E-003  4.008095936768964E-003  4.058511577279827E-003 
 4.109561368481745E-003  4.161253287008457E-003  4.213595409827399E-003  4.266595915501749E-003 
 4.320263085468358E-003  4.374605305331714E-003  4.429631066174232E-003  4.485348965882993E-003 
 4.541767710493184E-003  4.598896115548441E-003  4.656743107478279E-003  4.715317724992879E-003 
 4.774629120495397E-003  4.834686561512047E-003  4.895499432140184E-003  4.957077234514562E-003 
 5.019429590292088E-003  5.082566242155203E-003  5.146497055334213E-003  5.211232019148753E-003 
 5.276781248568618E-003  5.343154985794268E-003  5.410363601857181E-003  5.478417598240350E-003 
 5.547327608519175E-003  5.617104400022959E-003  5.687758875517332E-003  5.759302074907841E-003 
 5.831745176964945E-003  5.905099501070723E-003  5.979376508987566E-003  6.054587806649075E-003 
 6.130745145973527E-003  6.207860426700136E-003  6.285945698248401E-003  6.365013161600879E-003 
 6.445075171209576E-003  6.526144236926383E-003  6.608233025957753E-003  6.691354364843978E-003 
 6.775521241463381E-003  6.860746807061668E-003  6.947044378306857E-003  7.034427439370027E-003 
 7.122909644032248E-003  7.212504817818025E-003  7.303226960155541E-003  7.395090246564115E-003 
 7.488109030869140E-003  7.582297847444909E-003  7.677671413485653E-003  7.774244631305098E-003 
 7.872032590665008E-003  7.971050571132983E-003  8.071314044469919E-003  8.172838677047527E-003 
 8.275640332296193E-003  8.379735073183703E-003  8.485139164725099E-003  8.591869076524128E-003 
 8.699941485346661E-003  8.809373277726450E-003  8.920181552603695E-003  9.032383623996781E-003 
 9.145997023707639E-003  9.261039504061132E-003  9.377529040678867E-003  9.495483835287940E-003 
 9.614922318564988E-003  9.735863153016014E-003  9.858325235892477E-003  9.982327702143964E-003 
 1.010788992740812E-002  1.023503153103809E-002  1.036377237916811E-002  1.049413258781764E-002 
 1.062613252603450E-002  1.075979281907758E-002  1.089513435163962E-002  1.103217827111041E-002 
 1.117094599088122E-002  1.131145919369056E-002  1.145373983501226E-002  1.159781014648600E-002 
 1.174369263939104E-002  1.189141010816373E-002  1.204098563395908E-002  1.219244258825731E-002 
 1.234580463651568E-002  1.250109574186622E-002  1.265834016886012E-002  1.281756248725899E-002 
 1.297878757587403E-002  1.314204062645335E-002  1.330734714761823E-002  1.347473296884895E-002 
 1.364422424452061E-002  1.381584745798986E-002  1.398962942573299E-002  1.416559730153599E-002 
 1.434377858073751E-002  1.452420110452491E-002  1.470689306428460E-002  1.489188300600700E-002 
 1.507919983474685E-002  1.526887281913976E-002  1.546093159597542E-002  1.565540617482846E-002 
 1.585232694274749E-002  1.605172466900312E-002  1.625363050989578E-002  1.645807601362389E-002 
 1.666509312521334E-002  1.687471419150900E-002  1.708697196622893E-002  1.730189961508232E-002 
 1.751953072095156E-002  1.773989928913971E-002  1.796303975268389E-002  1.818898697773550E-002 
 1.841777626900818E-002  1.864944337529415E-002  1.888402449505009E-002  1.912155628205324E-002 
 1.936207585112855E-002  1.960562078394805E-002  1.985222913490300E-002  2.010193943704995E-002 
 2.035479070813166E-002  2.061082245667363E-002  2.087007468815752E-002  2.113258791127194E-002 
 2.139840314424207E-002  2.166756192123888E-002  2.194010629886886E-002  2.221607886274556E-002 
 2.249552273414352E-002  2.277848157673619E-002  2.306499960341840E-002  2.335512158321473E-002 
 2.364889284827483E-002  2.394635930095651E-002  2.424756742099822E-002  2.455256427278151E-002 
 2.486139751268499E-002  2.517411539653074E-002  2.549076678712435E-002  2.581140116188981E-002 
 2.613606862060052E-002  2.646481989320741E-002  2.679770634776575E-002  2.713477999846128E-002 
 2.747609351373771E-002  2.782170022452619E-002  2.817165413257844E-002  2.852600991890459E-002 
 2.888482295231719E-002  2.924814929808272E-002  2.961604572668190E-002  2.998856972268016E-002 
 3.036577949370983E-002  3.074773397956505E-002  3.113449286141134E-002  3.152611657111083E-002 
 3.192266630066492E-002  3.232420401177568E-002  3.273079244552739E-002  3.314249513219002E-002 
 3.355937640114599E-002  3.398150139094169E-002  3.440893605946566E-002  3.484174719425443E-002 
 3.528000242292841E-002  3.572377022375867E-002  3.617311993636696E-002  3.662812177256011E-002 
 3.708884682730072E-002  3.755536708981594E-002  3.802775545484593E-002  3.850608573403378E-002 
 3.899043266745884E-002  3.948087193531485E-002  3.997748016973521E-002  4.048033496676690E-002 
 4.098951489849499E-002  4.150509952531983E-002  4.202716940838828E-002  4.255580612218173E-002 
 4.309109226726224E-002  4.363311148317896E-002  4.418194846153724E-002  4.473768895923150E-002 
 4.530041981184517E-002  4.587022894721887E-002  4.644720539918924E-002  4.703143932150083E-002 
 4.762302200189263E-002  4.822204587636201E-002  4.882860454360808E-002  4.944279277965662E-002 
 5.006470655266917E-002  5.069444303793801E-002  5.133210063307016E-002  5.197777897336222E-002 
 5.263157894736842E-002  5.329360271266498E-002  5.396395371181207E-002  5.464273668851714E-002 
 5.533005770400130E-002  5.602602415357155E-002  5.673074478340167E-002  5.744432970752379E-002 
 5.816689042503411E-002  5.889853983751481E-002  5.963939226667507E-002  6.038956347221434E-002 
 6.114917066990966E-002  6.191833254993111E-002  6.269716929538731E-002  6.348580260110424E-002 
 6.428435569264053E-002  6.509295334554133E-002  6.591172190483501E-002  6.674078930477476E-002 
 6.758028508882849E-002  6.843034042992059E-002  6.929108815092748E-002  7.016266274543176E-002 
 7.104520039873706E-002  7.193883900914717E-002  7.284371820951324E-002  7.375997938905125E-002 
 7.468776571543463E-002  7.562722215716450E-002  7.657849550622112E-002  7.754173440100083E-002 
 7.851708934954056E-002  7.950471275303544E-002  8.050475892965157E-002  8.151738413863859E-002 
 8.254274660474574E-002  8.358100654294442E-002  8.463232618346231E-002  8.569686979713216E-002 
 8.677480372105938E-002  8.786629638461280E-002  8.897151833574168E-002  9.009064226762449E-002 
 9.122384304565244E-002  9.237129773475256E-002  9.353318562705466E-002  9.470968826990575E-002 
 9.590098949423737E-002  9.710727544328952E-002  9.832873460169592E-002  9.956555782493527E-002 
 1.008179383691525E-001  1.020860719213555E-001  1.033701566299920E-001  1.046703931359101E-001 
 1.059869846037093E-001  1.073201367534850E-001  1.086700578929730E-001  1.100369589500977E-001 
 1.114210535059302E-001  1.128225578280610E-001  1.142416909043917E-001  1.156786744773528E-001 
 1.171337330785510E-001  1.186070940638531E-001  1.200989876489107E-001  1.216096469451318E-001 
 1.231393079961048E-001  1.246882098144811E-001  1.262565944193209E-001  1.278447068739099E-001 
 1.294527953240500E-001  1.310811110368333E-001  1.327299084399026E-001  1.343994451612067E-001 
 1.360899820692551E-001  1.378017833138790E-001  1.395351163675057E-001  1.412902520669512E-001 
 1.430674646557392E-001  1.448670318269530E-001  1.466892347666238E-001  1.485343581976684E-001 
 1.504026904243772E-001  1.522945233774611E-001  1.542101526596687E-001  1.561498775919720E-001 
 1.581140012603385E-001  1.601028305630877E-001  1.621166762588437E-001  1.641558530150945E-001 
 1.662206794573563E-001  1.683114782189618E-001  1.704285759914717E-001  1.725723035757196E-001 
 1.747429959335027E-001  1.769409922399174E-001  1.791666359363588E-001  1.814202747841830E-001 
 1.837022609190443E-001  1.860129509059197E-001  1.883527057948200E-001  1.907218911772074E-001 
 1.931208772431182E-001  1.955500388390055E-001  1.980097555263113E-001  2.005004116407717E-001 
 2.030223963524723E-001  2.055761037266555E-001  2.081619327852935E-001  2.107802875694384E-001 
 2.134315772023514E-001  2.161162159534322E-001  2.188346233029479E-001  2.215872240075768E-001 
 2.243744481667801E-001  2.271967312900023E-001  2.300545143647240E-001  2.329482439253651E-001 
 2.358783721230560E-001  2.388453567962899E-001  2.418496615424574E-001  2.448917557902878E-001 
 2.479721148731971E-001  2.510912201035581E-001  2.542495588479097E-001  2.574476246031056E-001 
 2.606859170734270E-001  2.639649422486612E-001  2.672852124831622E-001  2.706472465759100E-001 
 2.740515698515711E-001  2.774987142425837E-001  2.809892183722726E-001  2.845236276390088E-001 
 2.881024943014319E-001  2.917263775647381E-001  2.953958436680608E-001  2.991114659729446E-001 
 3.028738250529332E-001  3.066835087842884E-001  3.105411124378430E-001  3.144472387720169E-001 
 3.184024981269974E-001  3.224075085201045E-001  3.264628957423616E-001  3.305692934562719E-001 
 3.347273432948331E-001  3.389376949617928E-001  3.432010063331638E-001  3.475179435600229E-001 
 3.518891811725933E-001  3.563154021856459E-001  3.607972982052202E-001  3.653355695366861E-001 
 3.699309252941737E-001  3.745840835113682E-001  3.792957712537087E-001  3.840667247319914E-001 
 3.888976894174027E-001  3.937894201580045E-001  3.987426812966762E-001  4.037582467905488E-001 
 4.088369003319356E-001  4.139794354707838E-001  4.191866557386726E-001  4.244593747743619E-001 
 4.297984164509288E-001  4.352046150044986E-001  4.406788151645929E-001  4.462218722861254E-001 
 4.518346524830472E-001  4.575180327636843E-001  4.632729011677691E-001  4.691001569051967E-001 
 4.750007104965332E-001  4.809754839152804E-001  4.870254107319416E-001  4.931514362598913E-001 
 4.993545177030803E-001  5.056356243056058E-001  5.119957375031520E-001  5.184358510763464E-001 
 5.249569713060382E-001  5.315601171305291E-001  5.382463203047900E-001  5.450166255616682E-001 
 5.518720907751353E-001  5.588137871255795E-001  5.658427992671765E-001  5.729602254973764E-001 
 5.801671779285055E-001  5.874647826615454E-001  5.948541799620837E-001  6.023365244384801E-001 
 6.099129852222843E-001  6.175847461509060E-001  6.253530059525998E-001  6.332189784337652E-001 
 6.411838926686039E-001  6.492489931911719E-001  6.574155401898323E-001  6.656848097041695E-001 
 6.740580938243707E-001  6.825367008931122E-001  6.911219557100016E-001  6.998151997385678E-001 
 7.086177913158794E-001  7.175311058647771E-001  7.265565361087944E-001  7.356954922897709E-001 
 7.449494023882004E-001  7.543197123463657E-001  7.638078862942592E-001  7.734154067783653E-001 
 7.831437749933079E-001  7.929945110164102E-001  8.029691540452200E-001  8.130692626380014E-001 
 8.232964149572721E-001  8.336522090163911E-001  8.441382629292461E-001  8.547562151630977E-001 
 8.655077247945823E-001  8.763944717689549E-001  8.874181571625815E-001  8.985805034487295E-001 
 9.098832547667192E-001  9.213281771944363E-001  9.329170590242970E-001  9.446517110426661E-001 
 9.565339668127930E-001  9.685656829613196E-001  9.807487394683693E-001  9.930850399613097E-001 
 1.005576512012193E+000  1.018225107438938E+000  1.031032802610317E+000  1.044001598754754E+000 
 1.057133522273035E+000  1.070430625054928E+000  1.083894984799791E+000  1.097528705341233E+000 
 1.111333916975823E+000  1.125312776795965E+000  1.139467469026951E+000  1.153800205368235E+000 
 1.168313225339035E+000  1.183008796628243E+000  1.197889215448775E+000  1.212956806896347E+000 
 1.228213925312775E+000  1.243662954653855E+000  1.259306308861850E+000  1.275146432242683E+000 
 1.291185799847862E+000  1.307426917861203E+000  1.323872323990442E+000  1.340524587863742E+000 
 1.357386311431214E+000  1.374460129371473E+000  1.391748709503305E+000  1.409254753202535E+000 
 1.426980995824100E+000  1.444930207129479E+000  1.463105191719458E+000  1.481508789472350E+000 
 1.500143875987754E+000  1.519013363035844E+000  1.538120199012365E+000  1.557467369399315E+000 
 1.577057897231422E+000  1.596894843568524E+000  1.616981307973839E+000  1.637320428998298E+000 
 1.657915384670946E+000  1.678769392995500E+000  1.699885712453196E+000  1.721267642511904E+000 
 1.742918524141701E+000  1.764841740336893E+000  1.787040716644608E+000  1.809518921700065E+000 
 1.832279867768529E+000  1.855327111294134E+000  1.878664253455574E+000  1.902294940728786E+000 
 1.926222865456739E+000  1.950451766426347E+000  1.974985429452684E+000  1.999827687970516E+000 
 2.024982423633270E+000  2.050453566919580E+000  2.076245097747397E+000  2.102361046095891E+000 
 2.128805492635128E+000  2.155582569363674E+000  2.182696460254253E+000  2.210151401907474E+000 
 2.237951684213831E+000  2.266101651023998E+000  2.294605700827553E+000  2.323468287440278E+000 
 2.352693920700045E+000  2.382287167171514E+000  2.412252650859659E+000  2.442595053932262E+000 
 2.473319117451545E+000  2.504429642114932E+000  2.535931489005201E+000  2.567829580350024E+000 
 2.600128900291062E+000  2.632834495662780E+000  2.665951476780982E+000  2.699485018241353E+000 
 2.733440359727973E+000  2.767822806832024E+000  2.802637731880826E+000  2.837890574777240E+000 
 2.873586843849697E+000  2.909732116712868E+000  2.946332041139166E+000  2.983392335941256E+000 
 3.020918791865591E+000  3.058917272497263E+000  3.097393715176182E+000  3.136354131924789E+000 
 3.175804610387477E+000  3.215751314781757E+000  3.256200486861468E+000  3.297158446892048E+000 
 3.338631594638071E+000  3.380626410363261E+000  3.423149455843001E+000  3.466207375389668E+000 
 3.509806896890800E+000  3.553954832860324E+000  3.598658081503064E+000  3.643923627792560E+000 
 3.689758544562519E+000  3.736169993611944E+000  3.783165226824162E+000  3.830751587299987E+000 
 3.878936510505044E+000  3.927727525431627E+000  3.977132255775088E+000  4.027158421125047E+000 
 4.077813838171630E+000  4.129106421926798E+000  4.181044186961123E+000  4.233635248656069E+000 
 4.286887824472007E+000  4.340810235232269E+000  4.395410906423225E+000  4.450698369510842E+000 
 4.506681263273719E+000  4.563368335152890E+000  4.620768442618680E+000  4.678890554554648E+000 
 4.737743752659043E+000  4.797337232863813E+000  4.857680306771468E+000  4.918782403110092E+000 
 4.980653069206534E+000  5.043301972478257E+000  5.106738901943865E+000  5.170973769752635E+000 
 5.236016612733366E+000  5.301877593962585E+000  5.368567004352616E+000  5.436095264259518E+000 
 5.504472925111275E+000  5.573710671056528E+000  5.643819320633924E+000  5.714809828462610E+000 
 5.786693286953875E+000  5.859480928044334E+000  5.933184124951017E+000  6.007814393948371E+000 
 6.083383396167772E+000  6.159902939419574E+000  6.237384980038070E+000  6.315841624749766E+000 
 6.395285132564998E+000  6.475727916693502E+000  6.557182546483971E+000  6.639661749388009E+000 
 6.723178412948896E+000  6.807745586815209E+000  6.893376484779926E+000  6.980084486845088E+000 
 7.067883141312396E+000  7.156786166900269E+000  7.246807454887301E+000  7.337961071282903E+000 
 7.430261259025105E+000  7.523722440206001E+000  7.618359218325323E+000  7.714186380572167E+000 
 7.811218900135611E+000  7.909471938544263E+000  8.008960848035244E+000  8.109701173953100E+000 
 8.211708657178690E+000  8.314999236588813E+000  8.419589051546668E+000  8.525494444423597E+000 
 8.632731963152736E+000  8.741318363814532E+000  8.851270613255023E+000  8.962605891736903E+000 
 9.075341595623913E+000  9.189495340099182E+000  9.305084961917498E+000  9.422128522192457E+000 
 9.540644309218493E+000  9.660650841328421E+000  9.782166869787069E+000  9.905211381721079E+000 
 1.002980360308579E+001  1.015596300166929E+001  1.028370929013426E+001  1.041306242909820E+001 
 1.054404263025220E+001  1.067667035951921E+001  1.081096634025176E+001  1.094695155647003E+001 
 1.108464725614078E+001  1.122407495449716E+001  1.136525643740074E+001  1.150821376474548E+001 
 1.165296927390459E+001  1.179954558322091E+001  1.194796559554095E+001  1.209825250179362E+001 
 1.225042978461381E+001  1.240452122201151E+001  1.256055089108736E+001  1.271854317179457E+001 
 1.287852275074844E+001  1.304051462508370E+001  1.320454410636024E+001  1.337063682451828E+001 
 1.353881873188289E+001  1.370911610721931E+001  1.388155555983891E+001  1.405616403375696E+001 
 1.423296881190279E+001  1.441199752038266E+001  1.459327813279653E+001  1.477683897460892E+001 
 1.496270872757479E+001  1.515091643422123E+001  1.534149150238527E+001  1.553446370980907E+001 
 1.572986320879266E+001  1.592772053090525E+001  1.612806659175603E+001  1.633093269582455E+001 
 1.653635054135233E+001  1.674435222529569E+001  1.695497024834087E+001  1.716823751998254E+001 
 1.738418736366573E+001  1.760285352199290E+001  1.782427016199619E+001  1.804847188047602E+001 
 1.827549370940711E+001  1.850537112141204E+001  1.873814003530416E+001  1.897383682169988E+001 
 1.921249830870152E+001  1.945416178765207E+001  1.969886501896169E+001  1.994664623800819E+001 
 2.019754416111117E+001  2.045159799158152E+001  2.070884742584718E+001  2.096933265965558E+001 
 2.123309439435448E+001  2.150017384325161E+001  2.177061273805415E+001  2.204445333538970E+001 
 2.232173842340866E+001  2.260251132847021E+001  2.288681592191204E+001  2.317469662690521E+001 
 2.346619842539566E+001  2.376136686513239E+001  2.406024806678468E+001  2.436288873114840E+001 
 2.466933614644300E+001  2.497963819570068E+001  2.529384336424786E+001  2.561200074728143E+001 
 2.593416005753983E+001  2.626037163307063E+001  2.659068644509629E+001  2.692515610597812E+001 
 2.726383287728116E+001  2.760676967794002E+001  2.795402009252743E+001  2.830563837962723E+001 
 2.866167948031207E+001  2.902219902672836E+001  2.938725335078874E+001  2.975689949297396E+001 
 3.013119521124589E+001  3.051019899007192E+001  3.089397004956362E+001  3.128256835472991E+001 
 3.167605462484643E+001  3.207449034294358E+001  3.247793776541283E+001  3.288645993173478E+001 
 3.330012067432916E+001  3.371898462852847E+001  3.414311724267784E+001  3.457258478836104E+001 
 3.500745437075589E+001  3.544779393911944E+001  3.589367229740503E+001  3.634515911501339E+001 
 3.680232493767820E+001  3.726524119848944E+001  3.773398022905473E+001  3.820861527080113E+001 
 3.868922048641968E+001  3.917587097145300E+001  3.966864276602954E+001  4.016761286674483E+001 
 4.067285923869211E+001  4.118446082764508E+001  4.170249757239274E+001  4.222705041723047E+001 
 4.275820132460758E+001  4.329603328793381E+001  4.384063034454783E+001  4.439207758884756E+001 
 4.495046118558692E+001  4.551586838333904E+001  4.608838752812873E+001  4.666810807723733E+001 
 4.725512061317991E+001  4.784951685785959E+001  4.845138968689900E+001  4.906083314415201E+001 