<UPF version="2.0.1">
  <PP_INFO>
    Generated using "atomic" code by A. Dal Corso  v.6.1 svn rev. 13369
    Author: ADC
    Generation date: 16Nov2017
    Pseudopotential type: PAW
    Element: Ni
    Functional:  SLA  PW   PBX  PBC

    Suggested minimum cutoff for wavefunctions:  75. Ry
    Suggested minimum cutoff for charge density: 476. Ry
    The Pseudo was generated with a Scalar-Relativistic Calculation
    Local Potential by smoothing AE potential with Bessel fncs, cutoff radius:   1.5000
    Pseudopotential contains additional information for GIPAW reconstruction.

    Valence configuration: 
    nl pn  l   occ       Rcut    Rcut US       E pseu
    3S  1  0  2.00      0.800      1.200    -8.162635
    4S  2  0  2.00      0.800      1.200    -0.414718
    3P  2  1  6.00      1.000      1.200    -5.246855
    3D  3  2  8.00      1.000      1.400    -0.652183
    Generation configuration:
    3S  1  0  2.00      0.800      1.200    -8.162685
    4S  2  0  2.00      0.800      1.200    -0.414725
    3P  2  1  6.00      1.000      1.200    -5.246902
    4P  3  1  0.00      1.000      1.200     7.000000
    3D  3  2  8.00      1.000      1.400    -0.652218
    3D  3  2  0.00      1.000      1.400     4.000000

    Pseudization used: troullier-martins
<PP_INPUTFILE>
 &input
   title='Ni',
   zed=28.,
   rel=1,
   config='[Ar] 4s2 4p0 3d8',
   iswitch=3,
   dft='PBE'
 /
 &inputp
   lpaw=.true.,
   pseudotype=3,
   file_pseudopw='Ni.pbe-spn-kjpaw_psl.1.0.0.UPF',
   author='ADC',
   lloc=-1,
   rcloc=1.5,
   which_augfun='PSQ',
   rmatch_augfun_nc=.true.,
   nlcc=.true.,
   new_core_ps=.true.,
   rcore=0.8,
   tm=.true.
 /
6
3S  1  0  2.00  0.00  0.80  1.20  0.0
4S  2  0  2.00  0.00  0.80  1.20  0.0
3P  2  1  6.00  0.00  1.00  1.20  0.0
4P  3  1  0.00  7.00  1.00  1.20  0.0
3D  3  2  8.00  0.00  1.00  1.40  0.0
3D  3  2  0.00  4.00  1.00  1.40  0.0
</PP_INPUTFILE>
  </PP_INFO>
  <!--                               -->
  <!-- END OF HUMAN READABLE SECTION -->
  <!--                               -->
  <PP_HEADER generated='Generated using "atomic" code by A. Dal Corso  v.6.1 svn rev. 13369'
             author="ADC"
             date="16Nov2017"
             comment=""
             element="Ni"
             pseudo_type="PAW"
             relativistic="scalar"
             is_ultrasoft="T"
             is_paw="T"
             is_coulomb="F"
             has_so="F"
             has_wfc="T"
             has_gipaw="T"
             paw_as_gipaw="T"
             core_correction="T"
             functional=" SLA  PW   PBX  PBC"
             z_valence="1.800000000000000E+001"
             total_psenergy="-4.286451396930767E+002"
             wfc_cutoff="7.464262633272897E+001"
             rho_cutoff="4.758138859072341E+002"
             l_max="2"
             l_max_rho="4"
             l_local="-1"
             mesh_size="1195"
             number_of_wfc="4"
             number_of_proj="6"/>
  <PP_MESH dx="1.250000000000000E-002" mesh="1195" xmin="-7.000000000000000E+000" rmax="1.000000000000000E+002"
zmesh="2.800000000000000E+001">
    <PP_R type="real" size="1195" columns="4">
 3.256721305551844E-005  3.297685816675079E-005  3.339165597916365E-005  3.381167130575907E-005 
 3.423696977478642E-005  3.466761783999675E-005  3.510368279102638E-005  3.554523276391112E-005 
 3.599233675173251E-005  3.644506461539838E-005  3.690348709455846E-005  3.736767581865781E-005 
 3.783770331812893E-005  3.831364303572488E-005  3.879556933799492E-005  3.928355752690422E-005 
 3.977768385160012E-005  4.027802552032616E-005  4.078466071248599E-005  4.129766859085920E-005 
 4.181712931397052E-005  4.234312404861474E-005  4.287573498253931E-005  4.341504533728624E-005 
 4.396113938119575E-005  4.451410244257320E-005  4.507402092302194E-005  4.564098231094373E-005 
 4.621507519520886E-005  4.679638927899857E-005  4.738501539382113E-005  4.798104551370453E-005 
 4.858457276956764E-005  4.919569146377204E-005  4.981449708485710E-005  5.044108632246006E-005 
 5.107555708242408E-005  5.171800850209627E-005  5.236854096581796E-005  5.302725612061025E-005 
 5.369425689205616E-005  5.436964750038327E-005  5.505353347674823E-005  5.574602167972615E-005 
 5.644722031200775E-005  5.715723893730587E-005  5.787618849747524E-005  5.860418132984736E-005 
 5.934133118478335E-005  6.008775324344790E-005  6.084356413580621E-005  6.160888195884794E-005 
 6.238382629503999E-005  6.316851823101145E-005  6.396308037647392E-005  6.476763688337911E-005 
 6.558231346531811E-005  6.640723741716433E-005  6.724253763496348E-005  6.808834463607416E-005 
 6.894479057956104E-005  6.981200928684525E-005  7.069013626261416E-005  7.157930871599426E-005 
 7.247966558199050E-005  7.339134754319496E-005  7.431449705176891E-005  7.524925835170122E-005 
 7.619577750134672E-005  7.715420239624838E-005  7.812468279224589E-005  7.910737032887560E-005 
 8.010241855306440E-005  8.110998294312167E-005  8.213022093303343E-005  8.316329193706121E-005 
 8.420935737465117E-005  8.526858069565619E-005  8.634112740587512E-005  8.742716509291368E-005 
 8.852686345236995E-005  8.964039431434995E-005  9.076793167031637E-005  9.190965170027499E-005 
 9.306573280030352E-005  9.423635561042577E-005  9.542170304283752E-005  9.662196031048667E-005 
 9.783731495601315E-005  9.906795688105316E-005  1.003140783759112E-004  1.015758741496060E-004 
 1.028535413602944E-004  1.041472796460774E-004  1.054572911561945E-004  1.067837805826093E-004 
 1.081269551919934E-004  1.094870248581122E-004  1.108642020946182E-004  1.122587020882564E-004 
 1.136707427324881E-004  1.151005446615366E-004  1.165483312848624E-004  1.180143288220708E-004 
 1.194987663382597E-004  1.210018757798111E-004  1.225238920106334E-004  1.240650528488590E-004 
 1.256255991040046E-004  1.272057746145975E-004  1.288058262862761E-004  1.304260041303694E-004 
 1.320665613029619E-004  1.337277541444493E-004  1.354098422195931E-004  1.371130883580773E-004 
 1.388377586955761E-004  1.405841227153387E-004  1.423524532902961E-004  1.441430267256985E-004 
 1.459561228022881E-004  1.477920248200156E-004  1.496510196423064E-004  1.515333977408836E-004 
 1.534394532411550E-004  1.553694839681703E-004  1.573237914931573E-004  1.593026811806429E-004 
 1.613064622361666E-004  1.633354477545955E-004  1.653899547690445E-004  1.674703043004147E-004 
 1.695768214075528E-004  1.717098352380423E-004  1.738696790796344E-004  1.760566904123233E-004 
 1.782712109610792E-004  1.805135867492434E-004  1.827841681525947E-004  1.850833099540973E-004 
 1.874113713993352E-004  1.897687162526456E-004  1.921557128539579E-004  1.945727341763473E-004 
 1.970201578843133E-004  1.994983663927893E-004  2.020077469268967E-004  2.045486915824495E-004 
 2.071215973872193E-004  2.097268663629733E-004  2.123649055882891E-004  2.150361272621628E-004 
 2.177409487684157E-004  2.204797927409107E-004  2.232530871295915E-004  2.260612652673481E-004 
 2.289047659377280E-004  2.317840334434960E-004  2.346995176760576E-004  2.376516741857562E-004 
 2.406409642530524E-004  2.436678549606010E-004  2.467328192662333E-004  2.498363360768575E-004 
 2.529788903232902E-004  2.561609730360250E-004  2.593830814219604E-004  2.626457189420870E-004 
 2.659493953901549E-004  2.692946269723313E-004  2.726819363878558E-004  2.761118529107168E-004 
 2.795849124723491E-004  2.831016577453748E-004  2.866626382283986E-004  2.902684103318647E-004 
 2.939195374650011E-004  2.976165901238503E-004  3.013601459804118E-004  3.051507899729053E-004 
 3.089891143971655E-004  3.128757189991938E-004  3.168112110688664E-004  3.207962055348256E-004 
 3.248313250605651E-004  3.289172001417193E-004  3.330544692045831E-004  3.372437787058647E-004 
 3.414857832336966E-004  3.457811456099176E-004  3.501305369936367E-004  3.545346369861076E-004 
 3.589941337369138E-004  3.635097240514953E-004  3.680821135000268E-004  3.727120165276609E-004 
 3.774001565661662E-004  3.821472661469617E-004  3.869540870155768E-004  3.918213702475531E-004 
 3.967498763657967E-004  4.017403754594166E-004  4.067936473040492E-004  4.119104814837008E-004 
 4.170916775141233E-004  4.223380449677364E-004  4.276504036001294E-004  4.330295834781464E-004 
 4.384764251095870E-004  4.439917795745390E-004  4.495765086583571E-004  4.552314849863239E-004 
 4.609575921599955E-004  4.667557248952671E-004  4.726267891621764E-004  4.785717023264581E-004 
 4.845913932928905E-004  4.906868026504337E-004  4.968588828192006E-004  5.031085981992763E-004 
 5.094369253214020E-004  5.158448529995671E-004  5.223333824855079E-004  5.289035276251572E-004 
 5.355563150170613E-004  5.422927841727838E-004  5.491139876793369E-004  5.560209913636461E-004 
 5.630148744590888E-004  5.700967297741293E-004  5.772676638630670E-004  5.845287971989439E-004 
 5.918812643486163E-004  5.993262141500343E-004  6.068648098917530E-004  6.144982294946922E-004 
 6.222276656961970E-004  6.300543262363987E-004  6.379794340469298E-004  6.460042274420111E-004 
 6.541299603119349E-004  6.623579023189959E-004  6.706893390958717E-004  6.791255724465092E-004 
 6.876679205495333E-004  6.963177181642141E-004  7.050763168390279E-004  7.139450851228367E-004 
 7.229254087787282E-004  7.320186910005449E-004  7.412263526321337E-004  7.505498323893583E-004 
 7.599905870848991E-004  7.695500918558847E-004  7.792298403943847E-004  7.890313451808015E-004 
 7.989561377202000E-004  8.090057687816061E-004  8.191818086403190E-004  8.294858473232705E-004 
 8.399194948574681E-004  8.504843815215671E-004  8.611821581006026E-004  8.720144961439298E-004 
 8.829830882264071E-004  8.940896482128624E-004  9.053359115258909E-004  9.167236354170155E-004 
 9.282545992412624E-004  9.399306047351898E-004  9.517534762984102E-004  9.637250612786602E-004 
 9.758472302604489E-004  9.881218773573422E-004  1.000550920507922E-003  1.013136301775468E-003 
 1.025879987651408E-003  1.038783969362588E-003  1.051850263182403E-003  1.065080910745847E-003 
 1.078477979368518E-003  1.092043562369646E-003  1.105779779399175E-003  1.119688776768960E-003 
 1.133772727788141E-003  1.148033833102717E-003  1.162474321039408E-003  1.177096447953834E-003 
 1.191902498583074E-003  1.206894786402663E-003  1.222075653988073E-003  1.237447473380751E-003 
 1.253012646458751E-003  1.268773605312034E-003  1.284732812622488E-003  1.300892762048723E-003 
 1.317255978615715E-003  1.333825019109344E-003  1.350602472475896E-003  1.367590960226595E-003 
 1.384793136847215E-003  1.402211690212851E-003  1.419849342007904E-003  1.437708848151352E-003 
 1.455792999227365E-003  1.474104620921341E-003  1.492646574461426E-003  1.511421757065583E-003 
 1.530433102394292E-003  1.549683581008942E-003  1.569176200835979E-003  1.588914007636912E-003 
 1.608900085484208E-003  1.629137557243193E-003  1.649629585060004E-003  1.670379370855678E-003 
 1.691390156826462E-003  1.712665225950410E-003  1.734207902500356E-003  1.756021552563342E-003 
 1.778109584566569E-003  1.800475449809978E-003  1.823122643005515E-003  1.846054702823193E-003 
 1.869275212444014E-003  1.892787800119850E-003  1.916596139740362E-003  1.940703951407053E-003 
 1.965115002014545E-003  1.989833105839157E-003  2.014862125134906E-003  2.040205970736975E-003 
 2.065868602672803E-003  2.091854030780841E-003  2.118166315337097E-003  2.144809567689570E-003 
 2.171787950900642E-003  2.199105680397580E-003  2.226767024631195E-003  2.254776305742799E-003 
 2.283137900239556E-003  2.311856239678306E-003  2.340935811358013E-003  2.370381159020916E-003 
 2.400196883562491E-003  2.430387643750364E-003  2.460958156952235E-003  2.491913199872988E-003 
 2.523257609301058E-003  2.554996282864186E-003  2.587134179794695E-003  2.619676321704362E-003 
 2.652627793369068E-003  2.685993743523301E-003  2.719779385664655E-003  2.753989998868454E-003 
 2.788630928612613E-003  2.823707587612881E-003  2.859225456668592E-003  2.895190085519044E-003 
 2.931607093710671E-003  2.968482171475092E-003  3.005821080618229E-003  3.043629655420603E-003 
 3.081913803548946E-003  3.120679506979300E-003  3.159932822931690E-003  3.199679884816597E-003 
 3.239926903193305E-003  3.280680166740318E-003  3.321946043237982E-003  3.363730980563453E-003 
 3.406041507698202E-003  3.448884235748174E-003  3.492265858976787E-003  3.536193155850939E-003 
 3.580672990100134E-003  3.625712311788967E-003  3.671318158403087E-003  3.717497655948809E-003 
 3.764258020066583E-003  3.811606557158436E-003  3.859550665529618E-003  3.908097836544606E-003 
 3.957255655797642E-003  4.007031804297990E-003  4.057434059670135E-003  4.108470297369015E-003 
 4.160148491910608E-003  4.212476718117949E-003  4.265463152382844E-003  4.319116073943453E-003 
 4.373443866177927E-003  4.428455017914332E-003  4.484158124757047E-003  4.540561890429842E-003 
 4.597675128135865E-003  4.655506761934704E-003  4.714065828136796E-003  4.773361476715375E-003 
 4.833402972736168E-003  4.894199697805088E-003  4.955761151534117E-003  5.018096953025649E-003 
 5.081216842375488E-003  5.145130682194759E-003  5.209848459150979E-003  5.275380285528459E-003 
 5.341736400808398E-003  5.408927173268810E-003  5.476963101604588E-003  5.545854816567965E-003 
 5.615613082629560E-003  5.686248799660370E-003  5.757773004634889E-003  5.830196873355657E-003 
 5.903531722199520E-003  5.977789009885806E-003  6.052980339266793E-003  6.129117459140673E-003 
 6.206212266087327E-003  6.284276806327197E-003  6.363323277603518E-003  6.443364031088245E-003 
 6.524411573311956E-003  6.606478568118010E-003  6.689577838641323E-003  6.773722369311975E-003 
 6.858925307884079E-003  6.945199967490131E-003  7.032559828721217E-003  7.121018541733399E-003 
 7.210589928380552E-003  7.301287984374074E-003  7.393126881469743E-003  7.486120969682064E-003 
 7.580284779526539E-003  7.675633024290023E-003  7.772180602329750E-003  7.869942599401214E-003 
 7.968934291015351E-003  8.069171144825390E-003  8.170668823043662E-003  8.273443184888889E-003 
 8.377510289064208E-003  8.482886396266362E-003  8.589587971726506E-003  8.697631687782885E-003 
 8.807034426485951E-003  8.917813282236205E-003  9.029985564455232E-003  9.143568800290361E-003 
 9.258580737353273E-003  9.375039346493122E-003  9.492962824604528E-003  9.612369597470851E-003 
 9.733278322643309E-003  9.855707892356185E-003  9.979677436478837E-003  1.010520632550475E-002 
 1.023231417357822E-002  1.036102084155912E-002  1.049134644012618E-002  1.062331133291931E-002 
 1.075693613972151E-002  1.089224173968069E-002  1.102924927457214E-002  1.116798015210192E-002 
 1.130845604925191E-002  1.145069891566682E-002  1.159473097708392E-002  1.174057473880586E-002 
 1.188825298921713E-002  1.203778880334480E-002  1.218920554646407E-002  1.234252687774909E-002 
 1.249777675396984E-002  1.265497943323532E-002  1.281415947878399E-002  1.297534176282184E-002 
 1.313855147040865E-002  1.330381410339332E-002  1.347115548439847E-002  1.364060176085533E-002 
 1.381217940908934E-002  1.398591523845711E-002  1.416183639553546E-002  1.433997036836310E-002 
 1.452034499073569E-002  1.470298844655496E-002  1.488792927423244E-002  1.507519637114877E-002 
 1.526481899816881E-002  1.545682678421384E-002  1.565124973089106E-002  1.584811821718142E-002 
 1.604746300418649E-002  1.624931523993477E-002  1.645370646424879E-002  1.666066861367317E-002 
 1.687023402646481E-002  1.708243544764586E-002  1.729730603412009E-002  1.751487935985380E-002 
 1.773518942112178E-002  1.795827064181932E-002  1.818415787884104E-002  1.841288642752730E-002 
 1.864449202717916E-002  1.887901086664278E-002  1.911647958996394E-002  1.935693530211383E-002 
 1.960041557478667E-002  1.984695845227042E-002  2.009660245739129E-002  2.034938659753296E-002 
 2.060535037073167E-002  2.086453377184772E-002  2.112697729881484E-002  2.139272195896806E-002 
 2.166180927545119E-002  2.193428129370492E-002  2.221018058803644E-002  2.248955026827180E-002 
 2.277243398649192E-002  2.305887594385329E-002  2.334892089749455E-002  2.364261416752979E-002 
 2.394000164412999E-002  2.424112979469339E-002  2.454604567110615E-002  2.485479691709436E-002 
 2.516743177566835E-002  2.548399909666082E-002  2.580454834435974E-002  2.612912960523721E-002 
 2.645779359577564E-002  2.679059167039222E-002  2.712757582946318E-002  2.746879872744897E-002 
 2.781431368112160E-002  2.816417467789560E-002  2.851843638426347E-002  2.887715415433760E-002 
 2.924038403849938E-002  2.960818279215716E-002  2.998060788461455E-002  3.035771750804995E-002 
 3.073957058660922E-002  3.112622678561280E-002  3.151774652087841E-002  3.191419096816128E-002 
 3.231562207271285E-002  3.272210255895993E-002  3.313369594030548E-002  3.355046652905271E-002 
 3.397247944645407E-002  3.439980063288651E-002  3.483249685815475E-002  3.527063573192436E-002 
 3.571428571428571E-002  3.616351612645124E-002  3.661839716158676E-002  3.707899989577949E-002 
 3.754539629914374E-002  3.801765924706640E-002  3.849586253159399E-002  3.898008087296257E-002 
 3.947038993127315E-002  3.996686631831362E-002  4.046958760952951E-002  4.097863235614545E-002 
 4.149408009743870E-002  4.201601137316754E-002  4.254450773615568E-002  4.307965176503502E-002 
 4.362152707714893E-002  4.417021834161733E-002  4.472581129256661E-002  4.528839274252573E-002 
 4.585805059599076E-002  4.643487386316041E-002  4.701895267384364E-002  4.761037829154298E-002 
 4.820924312771443E-002  4.881564075620701E-002  4.942966592788399E-002  5.005141458542763E-002 
 5.068098387833064E-002  5.131847217807591E-002  5.196397909350719E-002  5.261760548639342E-002 
 5.327945348718825E-002  5.394962651098834E-002  5.462822927369214E-002  5.531536780836190E-002 
 5.601114948179176E-002  5.671568301128371E-002  5.742907848163514E-002  5.815144736233968E-002 
 5.888290252500458E-002  5.962355826098725E-002  6.037353029925328E-002  6.113293582445948E-002 
 6.190189349526416E-002  6.268052346286780E-002  6.346894738978710E-002  6.426728846886462E-002 
 6.507567144251822E-002  6.589422262223218E-002  6.672306990829366E-002  6.756234280977751E-002 
 6.841217246478203E-002  6.927269166091983E-002  7.014403485606602E-002  7.102633819936757E-002 
 7.191973955251704E-002  7.282437851129342E-002  7.374039642737455E-002  7.466793643042346E-002 
 7.560714345045268E-002  7.655816424046999E-002  7.752114739940867E-002  7.849624339534654E-002 
 7.948360458901675E-002  8.048338525761459E-002  8.149574161890372E-002  8.252083185562517E-002 
 8.355881614021400E-002  8.460985665982648E-002  8.567411764168208E-002  8.675176537872460E-002 
 8.784296825560538E-002  8.894789677499401E-002  9.006672358421963E-002  9.119962350224739E-002 
 9.234677354699453E-002  9.350835296298934E-002  9.468454324937885E-002  9.587552818828829E-002 
 9.708149387353733E-002  9.830262873971811E-002  9.953912359163755E-002  1.007911716341321E-001 
 1.020589685022559E-001  1.033427122918486E-001  1.046426035904895E-001  1.059588455088382E-001 
 1.072916437123726E-001  1.086412064535238E-001  1.100077446042154E-001  1.113914716888141E-001 
 1.127926039174918E-001  1.142113602200098E-001  1.156479622799273E-001  1.171026345692383E-001 
 1.185756043834483E-001  1.200671018770868E-001  1.215773600996721E-001  1.231066150321242E-001 
 1.246551056236372E-001  1.262230738290169E-001  1.278107646464850E-001  1.294184261559622E-001 
 1.310463095578302E-001  1.326946692121823E-001  1.343637626785684E-001  1.360538507562379E-001 
 1.377651975248919E-001  1.394980703859448E-001  1.412527401043063E-001  1.430294808506903E-001 
 1.448285702444527E-001  1.466502893969718E-001  1.484949229555718E-001  1.503627591479986E-001 
 1.522540898274579E-001  1.541692105182159E-001  1.561084204617770E-001  1.580720226636406E-001 
 1.600603239406451E-001  1.620736349689110E-001  1.641122703323818E-001  1.661765485719810E-001 
 1.682667922353837E-001  1.703833279274144E-001  1.725264863610816E-001  1.746966024092502E-001 
 1.768940151569683E-001  1.791190679544487E-001  1.813721084707172E-001  1.836534887479390E-001 
 1.859635652564232E-001  1.883026989503246E-001  1.906712553240421E-001  1.930696044693274E-001 
 1.954981211331145E-001  1.979571847760723E-001  2.004471796318984E-001  2.029684947673553E-001 
 2.055215241430618E-001  2.081066666750528E-001  2.107243262971078E-001  2.133749120238686E-001 
 2.160588380147482E-001  2.187765236386424E-001  2.215283935394597E-001  2.243148777024702E-001 
 2.271364115214939E-001  2.299934358669309E-001  2.328863971546469E-001  2.358157474157298E-001 
 2.387819443671169E-001  2.417854514831169E-001  2.448267380678280E-001  2.479062793284656E-001 
 2.510245564496179E-001  2.541820566684285E-001  2.573792733507309E-001  2.606167060681370E-001 
 2.638948606760946E-001  2.672142493929316E-001  2.705753908798875E-001  2.739788103221582E-001 
 2.774250395109564E-001  2.809146169266033E-001  2.844480878226707E-001  2.880260043111741E-001 
 2.916489254488445E-001  2.953174173244812E-001  2.990320531474023E-001  3.027934133370137E-001 
 3.066020856134963E-001  3.104586650896429E-001  3.143637543638433E-001  3.183179636142406E-001 
 3.223219106940761E-001  3.263762212282260E-001  3.304815287109603E-001  3.346384746049263E-001 
 3.388477084413760E-001  3.431098879216611E-001  3.474256790199960E-001  3.517957560875207E-001 
 3.562208019576688E-001  3.607015080528591E-001  3.652385744925361E-001  3.698327102025605E-001 
 3.744846330259847E-001  3.791950698352147E-001  3.839647566455841E-001  3.887944387303625E-001 
 3.936848707372002E-001  3.986368168060487E-001  4.036510506885568E-001  4.087283558689686E-001 
 4.138695256865501E-001  4.190753634595433E-001  4.243466826106927E-001  4.296843067943407E-001 
 4.350890700251240E-001  4.405618168082953E-001  4.461034022716719E-001  4.517146922992579E-001 
 4.573965636665372E-001  4.631499041774690E-001  4.689756128032153E-001  4.748745998225996E-001 
 4.808477869643468E-001  4.868961075510987E-001  4.930205066452534E-001  4.992219411966303E-001 
 5.055013801919931E-001  5.118598048064624E-001  5.182982085568187E-001  5.248175974567479E-001 
 5.314189901740304E-001  5.381034181897069E-001  5.448719259592564E-001  5.517255710757867E-001 
 5.586654244352919E-001  5.656925704039797E-001  5.728081069877027E-001  5.800131460035306E-001 
 5.873088132534665E-001  5.946962487003623E-001  6.021766066460374E-001  6.097510559116379E-001 
 6.174207800202737E-001  6.251869773819390E-001  6.330508614807729E-001  6.410136610646663E-001 
 6.490766203372524E-001  6.572409991523240E-001  6.655080732106792E-001  6.738791342594601E-001 
 6.823554902939881E-001  6.909384657621364E-001  6.996294017712864E-001  7.084296562978690E-001 
 7.173406043995596E-001  7.263636384301295E-001  7.355001682570013E-001  7.447516214815513E-001 
 7.541194436621652E-001  7.636050985401194E-001  7.732100682682884E-001  7.829358536427311E-001 
 7.927839743372023E-001  8.027559691405938E-001  8.128533961973832E-001  8.230778332510928E-001 
 8.334308778908115E-001  8.439141478008303E-001  8.545292810133983E-001  8.652779361646779E-001 
 8.761617927539062E-001  8.871825514058160E-001  8.983419341363713E-001  9.096416846218248E-001 
 9.210835684711808E-001  9.326693735020711E-001  9.444009100201001E-001  9.562800111017199E-001 
 9.683085328806396E-001  9.804883548378607E-001  9.928213800953462E-001  1.005309535713381E+000 
 1.017954772991690E+000  1.030759067774323E+000  1.043724420758391E+000  1.056852857806678E+000 
 1.070146430264179E+000  1.083607215278641E+000  1.097237316125105E+000  1.111038862534559E+000 
 1.125014011026713E+000  1.139164945246946E+000  1.153493876307526E+000  1.168003043133078E+000 
 1.182694712810440E+000  1.197571180942892E+000  1.212634772008841E+000  1.227887839725044E+000 
 1.243332767414359E+000  1.258971968378162E+000  1.274807886273425E+000  1.290842995494533E+000 
 1.307079801559930E+000  1.323520841503593E+000  1.340168684271464E+000  1.357025931122850E+000 
 1.374095216036862E+000  1.391379206124001E+000  1.408880602042877E+000  1.426602138422212E+000 
 1.444546584288123E+000  1.462716743496779E+000  1.481115455172529E+000  1.499745594151500E+000 
 1.518610071430814E+000  1.537711834623427E+000  1.557053868418697E+000  1.576639195048760E+000 
 1.596470874760745E+000  1.616552006294956E+000  1.636885727369054E+000  1.657475215168321E+000 
 1.678323686842120E+000  1.699434400006561E+000  1.720810653253529E+000  1.742455786666088E+000 
 1.764373182340364E+000  1.786566264914029E+000  1.809038502101381E+000  1.831793405235204E+000 
 1.854834529815410E+000  1.878165476064588E+000  1.901789889490560E+000  1.925711461455984E+000 
 1.949933929755151E+000  1.974461079198017E+000  1.999296742201577E+000  2.024444799388710E+000 
 2.049909180194509E+000  2.075693863480285E+000  2.101802878155266E+000  2.128240303806107E+000 
 2.155010271334359E+000  2.182116963601906E+000  2.209564616084567E+000  2.237357517533890E+000 
 2.265500010647262E+000  2.293996492746498E+000  2.322851416464893E+000  2.352069290442989E+000 
 2.381654680033043E+000  2.411612208012362E+000  2.441946555305651E+000  2.472662461716380E+000 
 2.503764726667423E+000  2.535258209950962E+000  2.567147832487824E+000  2.599438577096419E+000 
 2.632135489271280E+000  2.665243677971461E+000  2.698768316418810E+000  2.732714642906282E+000 
 2.767087961616463E+000  2.801893643450327E+000  2.837137126866476E+000  2.872823918730904E+000 
 2.908959595177433E+000  2.945549802479040E+000  2.982600257930045E+000  3.020116750739500E+000 
 3.058105142935738E+000  3.096571370282318E+000  3.135521443205533E+000  3.174961447733512E+000 
 3.214897546447208E+000  3.255335979443302E+000  3.296283065309210E+000  3.337745202110419E+000 
 3.379728868390148E+000  3.422240624181674E+000  3.465287112033337E+000  3.508875058046431E+000 
 3.553011272926212E+000  3.597702653046040E+000  3.642956181524989E+000  3.688778929318959E+000 
 3.735178056325508E+000  3.782160812502644E+000  3.829734539001592E+000  3.877906669313914E+000 
 3.926684730432986E+000  3.976076344030084E+000  4.026089227645334E+000  4.076731195893537E+000 
 4.128010161685274E+000  4.179934137463283E+000  4.232511236454405E+000  4.285749673937342E+000 
 4.339657768526249E+000  4.394243943470591E+000  4.449516727971266E+000  4.505484758513292E+000 
 4.562156780215322E+000  4.619541648196035E+000  4.677648328957807E+000  4.736485901787738E+000 
 4.796063560176269E+000  4.856390613253754E+000  4.917476487244954E+000  4.979330726941970E+000 
 5.041962997195607E+000  5.105383084425500E+000  5.169600898149326E+000  5.234626472531113E+000 
 5.300469967949164E+000  5.367141672583607E+000  5.434652004023915E+000  5.503011510896747E+000 
 5.572230874514111E+000  5.642320910542409E+000  5.713292570692381E+000  5.785156944430298E+000 
 5.857925260710785E+000  5.931608889731289E+000  6.006219344708766E+000  6.081768283678612E+000 
 6.158267511316226E+000  6.235728980781587E+000  6.314164795586874E+000  6.393587211487739E+000 
 6.474008638398263E+000  6.555441642330000E+000  6.637898947355511E+000  6.721393437596446E+000 
 6.805938159236786E+000  6.891546322561307E+000  6.978231304019677E+000  7.066006648316633E+000 
 7.154886070528280E+000  7.244883458245175E+000  7.336012873742263E+000  7.428288556176094E+000 
 7.521724923809813E+000  7.616336576265931E+000  7.712138296807646E+000  7.809145054648721E+000 
 7.907372007292399E+000  8.006834502899903E+000  8.107548082688504E+000  8.209528483359959E+000 
 8.312791639559368E+000  8.417353686364951E+000  8.523230961809281E+000  8.630440009432027E+000 
 8.738997580865014E+000  8.848920638449654E+000  8.960226357887306E+000  9.072932130923117E+000 
 9.187055568063391E+000  9.302614501327385E+000  9.419626987033544E+000  9.538111308620790E+000 
 9.658085979505463E+000  9.779569745973948E+000  9.902581590111927E+000  1.002714073277034E+001 
 1.015326663656860E+001  1.028097900893583E+001  1.041029780519001E+001  1.054124323165615E+001 
 1.067383574882359E+001  1.080809607454285E+001  1.094404518726302E+001  1.108170432930951E+001 
 1.122109501020337E+001  1.136223901002207E+001  1.150515838280273E+001  1.164987545998815E+001 
 1.179641285391603E+001  1.194479346135232E+001  1.209504046706884E+001  1.224717734746587E+001 
 1.240122787424054E+001  1.255721611810103E+001  1.271516645252782E+001  1.287510355758206E+001 
 1.303705242376175E+001  1.320103835590676E+001  1.336708697715258E+001  1.353522423293413E+001 
 1.370547639503972E+001  1.387787006571603E+001  1.405243218182487E+001  1.422919001905200E+001 
 1.440817119616911E+001  1.458940367934930E+001  1.477291578653674E+001  1.495873619187158E+001 
 1.514689393017016E+001  1.533741840146193E+001  1.553033937558317E+001  1.572568699682853E+001 
 1.592349178866134E+001  1.612378465848270E+001  1.632659690246103E+001  1.653196021042213E+001 
 1.673990667080061E+001  1.695046877565403E+001  1.716367942573962E+001  1.737957193565526E+001 
 1.759818003904488E+001  1.781953789386936E+001  1.804368008774391E+001  1.827064164334229E+001 
 1.850045802386936E+001  1.873316513860216E+001  1.896879934850076E+001  1.920739747188991E+001 
 1.944899679021177E+001  1.969363505385138E+001  1.994135048803522E+001  2.019218179880376E+001 
 2.044616817905971E+001  2.070334931469166E+001  2.096376539077531E+001  2.122745709785244E+001 
 2.149446563828865E+001  2.176483273271172E+001  2.203860062653013E+001  2.231581209653432E+001 
 2.259651045758050E+001  2.288073956935860E+001  2.316854384324568E+001  2.345996824924499E+001 
 2.375505832301292E+001  2.405386017297391E+001  2.435642048752484E+001  2.466278654233051E+001 
 2.497300620771021E+001  2.528712795611784E+001  2.560520086971571E+001  2.592727464804362E+001 
 2.625339961578478E+001  2.658362673062882E+001  2.691800759123433E+001  2.725659444529113E+001 
 2.759944019768393E+001  2.794659841875916E+001  2.829812335269508E+001  2.865406992597782E+001 
 2.901449375598371E+001  2.937945115966937E+001  2.974899916237174E+001  3.012319550671798E+001 
 3.050209866164827E+001  3.088576783155149E+001  3.127426296551593E+001  3.166764476669676E+001 
 3.206597470180066E+001  3.246931501069044E+001  3.287772871611003E+001  3.329127963353172E+001 