<UPF version="2.0.1">
  <PP_INFO>
    Generated using "atomic" code by A. Dal Corso  v.6.1 svn rev. 13369
    Author: ADC
    Generation date: 16Nov2017
    Pseudopotential type: USPP
    Element: Pm
    Functional: PBE

    Suggested minimum cutoff for wavefunctions: 113. Ry
    Suggested minimum cutoff for charge density: 482. Ry
    The Pseudo was generated with a Scalar-Relativistic Calculation
    Local Potential by smoothing AE potential with Bessel fncs, cutoff radius:   1.7000
    Pseudopotential contains additional information for GIPAW reconstruction.

    Valence configuration: 
    nl pn  l   occ       Rcut    Rcut US       E pseu
    5S  1  0  2.00      1.300      1.600    -3.198593
    6S  2  0  2.00      1.300      1.600    -0.276077
    5P  2  1  6.00      1.400      1.900    -1.764044
    4D  3  2 10.00      1.050      1.300    -9.250692
    5D  4  2  0.50      1.050      1.300    -0.170358
    4F  4  3  4.50      1.100      1.300    -0.342958
    Generation configuration:
    5S  1  0  2.00      1.300      1.600    -3.198630
    6S  2  0  2.00      1.300      1.600    -0.276088
    5P  2  1  6.00      1.400      1.900    -1.764075
    6P  3  1  0.00      1.400      1.900     0.300000
    4D  3  2 10.00      1.050      1.300    -9.250777
    5D  4  2  0.50      1.050      1.300    -0.170383
    4F  4  3  4.50      1.100      1.300    -0.343025
    4F  4  3  0.00      1.100      1.300     1.000000

    Pseudization used: troullier-martins
<PP_INPUTFILE>
 &input
   title='Pm',
   zed=61.0,
   rel=1,
   config='[Xe] 4f4.5 5d0.5 6s2. 6p0.',
   iswitch=3,
   dft='PBE'
 /
 &inputp
   lpaw=.false.,
   pseudotype=3,
   file_pseudopw='Pm.pbe-spdfn-rrkjus_psl.1.0.0.UPF',
   author='ADC',
   lloc=-1,
   rcloc=1.7,
   which_augfun='PSQ',
   rmatch_augfun_nc=.true.,
   nlcc=.true.,
   new_core_ps=.true.,
   rcore=1.2,
   tm=.true.
 /
8
5S  1  0  2.00  0.00  1.30  1.60  0.0
6S  2  0  2.00  0.00  1.30  1.60  0.0
5P  2  1  6.00  0.00  1.40  1.90  0.0
6P  3  1  0.00  0.30  1.40  1.90  0.0
4D  3  2 10.00  0.00  1.05  1.30  0.0
5D  4  2  0.50  0.00  1.05  1.30  0.0
4F  4  3  4.50  0.00  1.10  1.30  0.0
4F  4  3  0.00  1.00  1.10  1.30  0.0
</PP_INPUTFILE>
  </PP_INFO>
  <!--                               -->
  <!-- END OF HUMAN READABLE SECTION -->
  <!--                               -->
  <PP_HEADER generated='Generated using "atomic" code by A. Dal Corso  v.6.1 svn rev. 13369'
             author="ADC"
             date="16Nov2017"
             comment=""
             element="Pm"
             pseudo_type="USPP"
             relativistic="scalar"
             is_ultrasoft="T"
             is_paw="F"
             is_coulomb="F"
             has_so="F"
             has_wfc="F"
             has_gipaw="T"
             paw_as_gipaw="F"
             core_correction="T"
             functional="PBE"
             z_valence="2.500000000000000E+001"
             total_psenergy="-5.883031694439269E+002"
             wfc_cutoff="1.125792645050329E+002"
             rho_cutoff="4.824386340150941E+002"
             l_max="3"
             l_max_rho="6"
             l_local="-1"
             mesh_size="1259"
             number_of_wfc="6"
             number_of_proj="8"/>
  <PP_MESH dx="1.250000000000000E-002" mesh="1259" xmin="-7.000000000000000E+000" rmax="1.000000000000000E+002"
zmesh="6.100000000000000E+001">
    <PP_R type="real" size="1259" columns="4">
 1.494888468122158E-005  1.513691850277086E-005  1.532731749863250E-005  1.552011141903695E-005 
 1.571533038842656E-005  1.591300491016244E-005  1.611316587129080E-005  1.631584454736904E-005 
 1.652107260735263E-005  1.672888211854352E-005  1.693930555160061E-005  1.715237578561342E-005 
 1.736812611323951E-005  1.758659024590651E-005  1.780780231907964E-005  1.803179689759538E-005 
 1.825860898106235E-005  1.848827400933004E-005  1.872082786802635E-005  1.895630689416488E-005 
 1.919474788182253E-005  1.943618808788873E-005  1.968066523788690E-005  1.992821753186909E-005 
 2.017888365038494E-005  2.043270276052540E-005  2.068971452204286E-005  2.094995909354794E-005 
 2.121347713878439E-005  2.148030983298295E-005  2.175049886929494E-005  2.202408646530700E-005 
 2.230111536963761E-005  2.258162886861667E-005  2.286567079304916E-005  2.315328552506363E-005 
 2.344451800504712E-005  2.373941373866714E-005  2.403801880398202E-005  2.434037985864077E-005 
 2.464654414717332E-005  2.495655950837265E-005  2.527047438276968E-005  2.558833782020217E-005 
 2.591019948747897E-005  2.623610967614040E-005  2.656611931031650E-005  2.690027995468403E-005 
 2.723864382252351E-005  2.758126378387773E-005  2.792819337381269E-005  2.827948680078266E-005 
 2.863519895510032E-005  2.899538541751345E-005  2.936010246788967E-005  2.972940709401009E-005 
 3.010335700047389E-005  3.048201061771477E-005  3.086542711113078E-005  3.125366639032912E-005 
 3.164678911848704E-005  3.204485672183061E-005  3.244793139923273E-005  3.285607613193178E-005 
 3.326935469337269E-005  3.368783165917146E-005  3.411157241720540E-005  3.454064317783006E-005 
 3.497511098422472E-005  3.541504372286811E-005  3.586051013414566E-005  3.631157982309044E-005 
 3.676832327025907E-005  3.723081184274438E-005  3.769911780532682E-005  3.817331433176580E-005 
 3.865347551623333E-005  3.913967638489137E-005  3.963199290761481E-005  4.013050200986201E-005 
 4.063528158469440E-005  4.114641050494751E-005  4.166396863555506E-005  4.218803684602787E-005 
 4.271869702309014E-005  4.325603208347412E-005  4.380012598687624E-005  4.435106374907585E-005 
 4.490893145521915E-005  4.547381627327031E-005  4.604580646763135E-005  4.662499141293389E-005 
 4.721146160800398E-005  4.780530869000275E-005  4.840662544874502E-005  4.901550584119771E-005 
 4.963204500616091E-005  5.025633927913350E-005  5.088848620736571E-005  5.152858456510132E-005 
 5.217673436901093E-005  5.283303689382011E-005  5.349759468813358E-005  5.417051159045872E-005 
 5.485189274543069E-005  5.554184462024117E-005  5.624047502127433E-005  5.694789311095170E-005 
 5.766420942478899E-005  5.838953588866770E-005  5.912398583632345E-005  5.986767402705481E-005 
 6.062071666365462E-005  6.138323141056689E-005  6.215533741227227E-005  6.293715531190433E-005 
 6.372880727010050E-005  6.453041698408988E-005  6.534210970702115E-005  6.616401226753375E-005 
 6.699625308957486E-005  6.783896221246618E-005  6.869227131122262E-005  6.955631371712688E-005 
 7.043122443856295E-005  7.131714018211096E-005  7.221419937390830E-005  7.312254218127871E-005 
 7.404231053463386E-005  7.497364814965038E-005  7.591670054972534E-005  7.687161508871494E-005 
 7.783854097395865E-005  7.881762928959320E-005  7.980903302016005E-005  8.081290707450905E-005 
 8.182940831000356E-005  8.285869555702974E-005  8.390092964381396E-005  8.495627342155286E-005 
 8.602489178985876E-005  8.710695172252582E-005  8.820262229362000E-005  8.931207470389714E-005 
 9.043548230755363E-005  9.157302063931311E-005  9.272486744185423E-005  9.389120269358337E-005 
 9.507220863675642E-005  9.626806980595496E-005  9.747897305691958E-005  9.870510759574687E-005 
 9.994666500845308E-005  1.012038392909099E-004  1.024768268791567E-004  1.037658266800942E-004 
 1.050710401025637E-004  1.063926710888178E-004  1.077309261463871E-004  1.090860143803471E-004 
 1.104581475259913E-004  1.118475399819152E-004  1.132544088435169E-004  1.146789739369182E-004 
 1.161214578533135E-004  1.175820859837492E-004  1.190610865543425E-004  1.205586906619416E-004 
 1.220751323102351E-004  1.236106484463160E-004  1.251654789977043E-004  1.267398669098372E-004 
 1.283340581840291E-004  1.299483019159097E-004  1.315828503343469E-004  1.332379588408559E-004 
 1.349138860495087E-004  1.366108938273411E-004  1.383292473352710E-004  1.400692150695303E-004 
 1.418310689036169E-004  1.436150841307775E-004  1.454215395070206E-004  1.472507172946740E-004 
 1.491029033064889E-004  1.509783869502974E-004  1.528774612742349E-004  1.548004230125280E-004 
 1.567475726318607E-004  1.587192143783228E-004  1.607156563249480E-004  1.627372104198526E-004 
 1.647841925349768E-004  1.668569225154405E-004  1.689557242295205E-004  1.710809256192542E-004 
 1.732328587516829E-004  1.754118598707365E-004  1.776182694497730E-004  1.798524322447785E-004 
 1.821146973482345E-004  1.844054182436666E-004  1.867249528608750E-004  1.890736636318626E-004 
 1.914519175474665E-004  1.938600862146986E-004  1.962985459148135E-004  1.987676776621000E-004 
 2.012678672634170E-004  2.037995053784769E-004  2.063629875808852E-004  2.089587144199519E-004 
 2.115870914832766E-004  2.142485294601226E-004  2.169434442055892E-004  2.196722568055873E-004 
 2.224353936426383E-004  2.252332864624942E-004  2.280663724416003E-004  2.309350942554055E-004 
 2.338399001475288E-004  2.367812439998013E-004  2.397595854031840E-004  2.427753897295803E-004 
 2.458291282045527E-004  2.489212779809499E-004  2.520523222134661E-004  2.552227501341326E-004 
 2.584330571287621E-004  2.616837448143545E-004  2.649753211174734E-004  2.683083003536135E-004 
 2.716832033075615E-004  2.751005573147698E-004  2.785608963437555E-004  2.820647610795309E-004 
 2.856126990080904E-004  2.892052645019535E-004  2.928430189067875E-004  2.965265306291199E-004 
 3.002563752251505E-004  3.040331354906866E-004  3.078574015522034E-004  3.117297709590534E-004 
 3.156508487768350E-004  3.196212476819343E-004  3.236415880572587E-004  3.277124980891710E-004 
 3.318346138656457E-004  3.360085794756599E-004  3.402350471098319E-004  3.445146771623284E-004 
 3.488481383340521E-004  3.532361077371274E-004  3.576792710007012E-004  3.621783223780729E-004 
 3.667339648551738E-004  3.713469102604094E-004  3.760178793758841E-004  3.807476020500258E-004 
 3.855368173116247E-004  3.903862734853095E-004  3.952967283084734E-004  4.002689490496727E-004 
 4.053037126285147E-004  4.104018057370516E-004  4.155640249627040E-004  4.207911769127284E-004 
 4.260840783402516E-004  4.314435562718904E-004  4.368704481369752E-004  4.423656018984014E-004 
 4.479298761851241E-004  4.535641404263210E-004  4.592692749872430E-004  4.650461713067721E-004 
 4.708957320367120E-004  4.768188711828275E-004  4.828165142476605E-004  4.888895983751428E-004 
 4.950390724970246E-004  5.012658974811491E-004  5.075710462815884E-004  5.139555040906703E-004 
 5.204202684929173E-004  5.269663496209192E-004  5.335947703131710E-004  5.403065662738912E-004 
 5.471027862348537E-004  5.539844921192551E-004  5.609527592076399E-004  5.680086763059184E-004 
 5.751533459154924E-004  5.823878844055240E-004  5.897134221873716E-004  5.971311038912169E-004 
 6.046420885449183E-004  6.122475497551085E-004  6.199486758905751E-004  6.277466702679453E-004 
 6.356427513397050E-004  6.436381528845871E-004  6.517341242003495E-004  6.599319302989812E-004 
 6.682328521043643E-004  6.766381866524188E-004  6.851492472937691E-004  6.937673638989560E-004 
 7.024938830662325E-004  7.113301683319734E-004  7.202776003837282E-004  7.293375772759594E-004 
 7.385115146484888E-004  7.478008459476952E-004  7.572070226504938E-004  7.667315144911308E-004 
 7.763758096908349E-004  7.861414151903520E-004  7.960298568854094E-004  8.060426798651407E-004 
 8.161814486535073E-004  8.264477474537602E-004  8.368431803959741E-004  8.473693717876953E-004 
 8.580279663677440E-004  8.688206295632098E-004  8.797490477496743E-004  8.908149285147130E-004 
 9.020200009247091E-004  9.133660157950229E-004  9.248547459635631E-004  9.364879865677917E-004 
 9.482675553252211E-004  9.601952928174354E-004  9.722730627776839E-004  9.845027523820975E-004 
 9.968862725445570E-004  1.009425558215283E-003  1.022122568683171E-003  1.034979287881941E-003 
 1.047997724700124E-003  1.061179913294960E-003  1.074527913410236E-003  1.088043810698125E-003 
 1.101729717045078E-003  1.115587770901806E-003  1.129620137617419E-003  1.143829009777765E-003 
 1.158216607548027E-003  1.172785179019627E-003  1.187537000561499E-003  1.202474377175773E-003 
 1.217599642857933E-003  1.232915160961515E-003  1.248423324567382E-003  1.264126556857651E-003 
 1.280027311494314E-003  1.296128073002634E-003  1.312431357159354E-003  1.328939711385791E-003 
 1.345655715145882E-003  1.362581980349222E-003  1.379721151759187E-003  1.397075907406178E-003 
 1.414648959006074E-003  1.432443052383941E-003  1.450460967903071E-003  1.468705520899422E-003 
 1.487179562121517E-003  1.505885978175883E-003  1.524827691978090E-003  1.544007663209454E-003 
 1.563428888779503E-003  1.583094403294244E-003  1.603007279530329E-003  1.623170628915185E-003 
 1.643587602013176E-003  1.664261389017887E-003  1.685195220250597E-003  1.706392366665027E-003 
 1.727856140358432E-003  1.749589895089118E-003  1.771597026800480E-003  1.793880974151623E-003 
 1.816445219054655E-003  1.839293287218750E-003  1.862428748701045E-003  1.885855218464466E-003 
 1.909576356942574E-003  1.933595870611518E-003  1.957917512569174E-003  1.982545083121585E-003 
 2.007482430376753E-003  2.032733450845923E-003  2.058302090052415E-003  2.084192343148124E-003 
 2.110408255537774E-003  2.136953923511012E-003  2.163833494882464E-003  2.191051169639845E-003 
 2.218611200600208E-003  2.246517894074467E-003  2.274775610540251E-003  2.303388765323249E-003 
 2.332361829287109E-003  2.361699329532021E-003  2.391405850102089E-003  2.421486032701588E-003 
 2.451944577420249E-003  2.482786243467650E-003  2.514015849916860E-003  2.545638276457427E-003 
 2.577658464157831E-003  2.610081416237547E-003  2.642912198848801E-003  2.676155941868171E-003 
 2.709817839698140E-003  2.743903152078730E-003  2.778417204909347E-003  2.813365391080965E-003 
 2.848753171318773E-003  2.884586075035435E-003  2.920869701195057E-003  2.957609719188047E-003 
 2.994811869716963E-003  3.032481965693513E-003  3.070625893146837E-003  3.109249612143202E-003 
 3.148359157717282E-003  3.187960640815142E-003  3.228060249249083E-003  3.268664248664511E-003 
 3.309778983518942E-003  3.351410878073346E-003  3.393566437395947E-003  3.436252248378653E-003 
 3.479474980766280E-003  3.523241388198699E-003  3.567558309266115E-003  3.612432668577607E-003 
 3.657871477843112E-003  3.703881836969031E-003  3.750470935167582E-003  3.797646052080146E-003 
 3.845414558914718E-003  3.893783919597675E-003  3.942761691940036E-003  3.992355528818374E-003 
 4.042573179370600E-003  4.093422490206782E-003  4.144911406635188E-003  4.197047973903772E-003 
 4.249840338457240E-003  4.303296749209958E-003  4.357425558834865E-003  4.412235225068587E-003 
 4.467734312032994E-003  4.523931491573332E-003  4.580835544613237E-003  4.638455362526771E-003 
 4.696799948527707E-003  4.755878419076318E-003  4.815700005303818E-003  4.876274054454766E-003 
 4.937610031347578E-003  4.999717519853431E-003  5.062606224393769E-003  5.126285971456621E-003 
 5.190766711132022E-003  5.256058518666736E-003  5.322171596038520E-003  5.389116273550232E-003 
 5.456903011443929E-003  5.525542401535319E-003  5.595045168868753E-003  5.665422173393025E-003 
 5.736684411658286E-003  5.808843018534243E-003  5.881909268950029E-003  5.955894579655926E-003 
 6.030810511007251E-003  6.106668768770706E-003  6.183481205953394E-003  6.261259824654903E-003 
 6.340016777942647E-003  6.419764371750803E-003  6.500515066803163E-003  6.582281480560111E-003 
 6.665076389190153E-003  6.748912729566210E-003  6.833803601287023E-003  6.919762268724025E-003 
 7.006802163093882E-003  7.094936884557172E-003  7.184180204343435E-003  7.274546066902949E-003 
 7.366048592085601E-003  7.458702077347110E-003  7.552520999983050E-003  7.647520019390962E-003 
 7.743713979360896E-003  7.841117910394822E-003  7.939747032055125E-003  8.039616755342727E-003 
 8.140742685105080E-003  8.243140622474441E-003  8.346826567336874E-003  8.451816720832202E-003 
 8.558127487885514E-003  8.665775479770455E-003  8.774777516704758E-003  8.885150630478480E-003 
 8.996912067115191E-003  9.110079289566749E-003  9.224669980441904E-003  9.340702044769229E-003 
 9.458193612794865E-003  9.577163042815345E-003  9.697628924046155E-003  9.819610079526324E-003 
 9.943125569059564E-003  1.006819469219242E-002  1.019483699122984E-002  1.032307225428870E-002 
 1.045292051838973E-002  1.058440207258840E-002  1.071753746114504E-002  1.085234748673499E-002 
 1.098885321369901E-002  1.112707597133467E-002  1.126703735722905E-002  1.140875924063348E-002 
 1.155226376588055E-002  1.169757335584431E-002  1.184471071544381E-002  1.199369883519085E-002 
 1.214456099478226E-002  1.229732076673741E-002  1.245200202008146E-002  1.260862892407493E-002 
 1.276722595199024E-002  1.292781788493568E-002  1.309042981572750E-002  1.325508715281070E-002 
 1.342181562422922E-002  1.359064128164591E-002  1.376159050441324E-002  1.393469000369506E-002 
 1.410996682664030E-002  1.428744836060916E-002  1.446716233745238E-002  1.464913683784452E-002 
 1.483340029567147E-002  1.501998150247341E-002  1.520890961194350E-002  1.540021414448321E-002 
 1.559392499181499E-002  1.579007242165282E-002  1.598868708243169E-002  1.618980000809643E-002 
 1.639344262295082E-002  1.659964674656778E-002  1.680844459876114E-002  1.701986880462009E-002 
 1.723395239960696E-002  1.745072883471900E-002  1.767023198171527E-002  1.789249613840905E-002 
 1.811755603402702E-002  1.834544683463576E-002  1.857620414863650E-002  1.880986403232906E-002 
 1.904646299554563E-002  1.928603800735559E-002  1.952862650184195E-002  1.977426638395050E-002 
 2.002299603541263E-002  2.027485432074238E-002  2.052988059330926E-002  2.078811470148722E-002 
 2.104959699488101E-002  2.131436833063101E-002  2.158247007979708E-002  2.185394413382301E-002 
 2.212883291108203E-002  2.240717936350486E-002  2.268902698329101E-002  2.297441980970449E-002 
 2.326340243595505E-002  2.355602001616599E-002  2.385231827242953E-002  2.415234350195108E-002 
 2.445614258428313E-002  2.476376298865038E-002  2.507525278136688E-002  2.539066063334644E-002 
 2.571003582770769E-002  2.603342826747449E-002  2.636088848337350E-002  2.669246764172969E-002 
 2.702821755246112E-002  2.736819067717448E-002  2.771244013736216E-002  2.806101972270271E-002 
 2.841398389946551E-002  2.877138781902129E-002  2.913328732645965E-002  2.949973896931491E-002 
 2.987080000640180E-002  3.024652841676231E-002  3.062698290872496E-002  3.101222292907820E-002 
 3.140230867235896E-002  3.179730109025828E-002  3.219726190114506E-002  3.260225359970970E-002 
 3.301233946672913E-002  3.342758357895435E-002  3.384805081912275E-002  3.427380688609602E-002 
 3.470491830512581E-002  3.514145243824852E-002  3.558347749481054E-002  3.603106254212628E-002 
 3.648427751626999E-002  3.694319323300342E-002  3.740788139884105E-002  3.787841462225418E-002 
 3.835486642501627E-002  3.883731125369085E-002  3.932582449126390E-002  3.982048246892277E-002 
 4.032136247798280E-002  4.082854278196446E-002  4.134210262882212E-002  4.186212226332667E-002 
 4.238868293960404E-002  4.292186693383118E-002  4.346175755709193E-002  4.400843916839463E-002 
 4.456199718785320E-002  4.512251811003454E-002  4.569008951747298E-002  4.626480009435573E-002 
 4.684673964037976E-002  4.743599908478297E-002  4.803267050055254E-002  4.863684711881096E-002 
 4.924862334338413E-002  4.986809476555189E-002  5.049535817898412E-002  5.113051159486550E-002 
 5.177365425720933E-002  5.242488665836516E-002  5.308431055472071E-002  5.375202898260120E-002 
 5.442814627436969E-002  5.511276807472837E-002  5.580600135722652E-002  5.650795444097503E-002 
 5.721873700757117E-002  5.793846011823727E-002  5.866723623117345E-002  5.940517921913017E-002 
 6.015240438720076E-002  6.090902849083777E-002  6.167516975409696E-002  6.245094788810922E-002 
 6.323648410978644E-002  6.403190116076156E-002  6.483732332656685E-002  6.565287645605457E-002 
 6.647868798106027E-002  6.731488693631493E-002  6.816160397960673E-002  6.901897141219607E-002 
 6.988712319948889E-002  7.076619499196794E-002  7.165632414638945E-002  7.255764974724488E-002 
 7.347031262849286E-002  7.439445539556569E-002  7.533022244765065E-002  7.627776000025359E-002 
 7.723721610804499E-002  7.820874068799348E-002  7.919248554279154E-002  8.018860438457387E-002 
 8.119725285893628E-002  8.221858856925512E-002  8.325277110131281E-002  8.429996204823428E-002 
 8.536032503573525E-002  8.643402574768999E-002  8.752123195201934E-002  8.862211352690437E-002 
 8.973684248733123E-002  9.086559301196760E-002  9.200854147037958E-002  9.316586645058932E-002 
 9.433774878697919E-002  9.552437158854885E-002  9.672592026752488E-002  9.794258256833314E-002 
 9.917454859693361E-002  1.004220108505244E-001  1.016851642476208E-001  1.029642061585109E-001 
 1.042593364360956E-001  1.055707574471158E-001  1.068986741037723E-001  1.082432938957448E-001 
 1.096048269226110E-001  1.109834859266766E-001  1.123794863262161E-001  1.137930462491317E-001 
 1.152243865670377E-001  1.166737309297704E-001  1.181413058003355E-001  1.196273404902924E-001 
 1.211320671955844E-001  1.226557210328211E-001  1.241985400760139E-001  1.257607653937775E-001 
 1.273426410869964E-001  1.289444143269654E-001  1.305663353940128E-001  1.322086577166045E-001 
 1.338716379109450E-001  1.355555358210734E-001  1.372606145594634E-001  1.389871405481374E-001 
 1.407353835602934E-001  1.425056167624590E-001  1.442981167571740E-001  1.461131636262088E-001 
 1.479510409743300E-001  1.498120359736119E-001  1.516964394083097E-001  1.536045457202940E-001 
 1.555366530550578E-001  1.574930633083035E-001  1.594740821731129E-001  1.614800191877144E-001 
 1.635111877838480E-001  1.655679053357386E-001  1.676504932096887E-001  1.697592768142901E-001 
 1.718945856512716E-001  1.740567533669838E-001  1.762461178045304E-001  1.784630210565598E-001 
 1.807078095187148E-001  1.829808339437601E-001  1.852824494963867E-001  1.876130158087069E-001 
 1.899728970364492E-001  1.923624619158560E-001  1.947820838213015E-001  1.972321408236318E-001 
 1.997130157492373E-001  2.022250962398732E-001  2.047687748132264E-001  2.073444489242496E-001 
 2.099525210272630E-001  2.125933986388382E-001  2.152674944014759E-001  2.179752261480785E-001 
 2.207170169672411E-001  2.234932952693568E-001  2.263044948535589E-001  2.291510549755024E-001 
 2.320334204159968E-001  2.349520415505074E-001  2.379073744195234E-001  2.408998807998187E-001 
 2.439300282766041E-001  2.469982903165868E-001  2.501051463419537E-001  2.532510818052791E-001 
 2.564365882653799E-001  2.596621634641219E-001  2.629283114041914E-001  2.662355424278501E-001 
 2.695843732966732E-001  2.729753272722975E-001  2.764089341981811E-001  2.798857305823911E-001 
 2.834062596814371E-001  2.869710715851523E-001  2.905807233026499E-001  2.942357788493550E-001 
 2.979368093351323E-001  3.016843930535258E-001  3.054791155721150E-001  3.093215698240145E-001 
 3.132123562005191E-001  3.171520826449151E-001  3.211413647474757E-001  3.251808258416448E-001 
 3.292710971014372E-001  3.334128176400595E-001  3.376066346097711E-001  3.418532033030071E-001 
 3.461531872547643E-001  3.505072583462843E-001  3.549160969100340E-001  3.593803918360077E-001 
 3.639008406793716E-001  3.684781497694529E-001  3.731130343201103E-001  3.778062185414853E-001 
 3.825584357531594E-001  3.873704284987418E-001  3.922429486618877E-001  3.971767575837866E-001 
 4.021726261821209E-001  4.072313350715221E-001  4.123536746855475E-001  4.175404454001819E-001 
 4.227924576589027E-001  4.281105320993114E-001  4.334954996813574E-001  4.389482018171829E-001 
 4.444694905025887E-001  4.500602284501656E-001  4.557212892240933E-001  4.614535573766337E-001 
 4.672579285863495E-001  4.731353097980497E-001  4.790866193645072E-001  4.851127871899505E-001 
 4.912147548753611E-001  4.973934758656059E-001  5.036499155984088E-001  5.099850516552076E-001 
 5.163998739139011E-001  5.228953847035164E-001  5.294725989608315E-001  5.361325443889536E-001 
 5.428762616179067E-001  5.497048043672289E-001  5.566192396106157E-001  5.636206477426431E-001 
 5.707101227475746E-001  5.778887723703039E-001  5.851577182894412E-001  5.925180962925727E-001 
 5.999710564537384E-001  6.075177633131245E-001  6.151593960590327E-001  6.228971487121279E-001 
 6.307322303120022E-001  6.386658651060987E-001  6.466992927409927E-001  6.548337684560973E-001 
 6.630705632797940E-001  6.714109642280296E-001  6.798562745054232E-001  6.884078137088854E-001 
 6.970669180338162E-001  7.058349404828846E-001  7.147132510774346E-001  7.237032370715620E-001 
 7.328063031688665E-001  7.420238717419469E-001  7.513573830546478E-001  7.608082954870979E-001 
 7.703780857635959E-001  7.800682491833394E-001  7.898802998540789E-001  7.998157709286960E-001 
 8.098762148447571E-001  8.200632035670953E-001  8.303783288334208E-001  8.408232024030443E-001 
 8.513994563087129E-001  8.621087431116140E-001  8.729527361596016E-001  8.839331298486486E-001 
 8.950516398876104E-001  9.063100035663031E-001  9.177099800269534E-001  9.292533505390799E-001 
 9.409419187778072E-001  9.527775111057047E-001  9.647619768581550E-001  9.768971886323113E-001 
 9.891850425797059E-001  1.001627458702514E+000  1.014226381153572E+000  1.026983778540146E+000 
 1.039901644231530E+000  1.052981996670524E+000  1.066226879688803E+000  1.079638362826290E+000 
 1.093218541654512E+000  1.106969538104035E+000  1.120893500796037E+000  1.134992605378011E+000 
 1.149269054863735E+000  1.163725079977491E+000  1.178362939502608E+000  1.193184920634422E+000 
 1.208193339337637E+000  1.223390540708212E+000  1.238778899339782E+000  1.254360819694687E+000 
 1.270138736479688E+000  1.286115115026380E+000  1.302292451676415E+000  1.318673274171563E+000 
 1.335260142048658E+000  1.352055647039559E+000  1.369062413476086E+000  1.386283098700098E+000 
 1.403720393478699E+000  1.421377022424670E+000  1.439255744422212E+000  1.457359353058005E+000 
 1.475690677057735E+000  1.494252580728073E+000  1.513047964404228E+000  1.532079764903143E+000 
 1.551350955982363E+000  1.570864548804703E+000  1.590623592408745E+000  1.610631174185247E+000 
 1.630890420359573E+000  1.651404496480150E+000  1.672176607913110E+000  1.693210000343129E+000 
 1.714507960280561E+000  1.736073815574984E+000  1.757910935935157E+000  1.780022733455567E+000 
 1.802412663149567E+000  1.825084223489219E+000  1.848040956951956E+000  1.871286450574083E+000 
 1.894824336511273E+000  1.918658292606097E+000  1.942792042962678E+000  1.967229358528616E+000 
 1.991974057684180E+000  2.017030006838960E+000  2.042401121035991E+000  2.068091364563478E+000 
 2.094104751574247E+000  2.120445346712934E+000  2.147117265751124E+000  2.174124676230437E+000 
 2.201471798113697E+000  2.229162904444346E+000  2.257202322014078E+000  2.285594432038937E+000 
 2.314343670843885E+000  2.343454530555968E+000  2.372931559806248E+000  2.402779364440511E+000 
 2.433002608238961E+000  2.463606013644934E+000  2.494594362502780E+000  2.525972496805064E+000 
 2.557745319449100E+000  2.589917795003073E+000  2.622494950481749E+000  2.655481876131940E+000 
 2.688883726227902E+000  2.722705719876658E+000  2.756953141833532E+000  2.791631343327888E+000 
 2.826745742899251E+000  2.862301827244008E+000  2.898305152072663E+000  2.934761342977978E+000 
 2.971676096313957E+000  3.009055180085901E+000  3.046904434851710E+000  3.085229774634434E+000 
 3.124037187846394E+000  3.163332738224862E+000  3.203122565779524E+000  3.243412887751898E+000 
 3.284209999586751E+000  3.325520275915818E+000  3.367350171553825E+000  3.409706222507060E+000 
 3.452595046994668E+000  3.496023346482722E+000  3.539997906731379E+000  3.584525598855151E+000 
 3.629613380396511E+000  3.675268296413070E+000  3.721497480578329E+000  3.768308156296374E+000 
 3.815707637830529E+000  3.863703331446207E+000  3.912302736568194E+000  3.961513446952406E+000 
 4.011343151872465E+000  4.061799637321153E+000  4.112890787226960E+000  4.164624584686021E+000 
 4.217009113209426E+000  4.270052557986340E+000  4.323763207162939E+000  4.378149453137413E+000 
 4.433219793871361E+000  4.488982834217550E+000  4.545447287264492E+000  4.602621975697861E+000 
 4.660515833179032E+000  4.719137905741039E+000  4.778497353201970E+000  4.838603450596267E+000 
 4.899465589623944E+000  4.961093280118030E+000  5.023496151530567E+000  5.086683954437154E+000 
 5.150666562060561E+000  5.215453971813411E+000  5.281056306860271E+000  5.347483817699481E+000 
 5.414746883764736E+000  5.482856015046968E+000  5.551821853736517E+000  5.621655175885974E+000 
 5.692366893094018E+000  5.763968054210308E+000  5.836469847061952E+000  5.909883600201602E+000 
 5.984220784677523E+000  6.059493015826053E+000  6.135712055086429E+000  6.212889811838616E+000 
 6.291038345264135E+000  6.370169866230308E+000  6.450296739198302E+000  6.531431484155015E+000 
 6.613586778569428E+000  6.696775459373452E+000  6.781010524967686E+000  6.866305137252530E+000 
 6.952672623684665E+000  7.040126479359572E+000  7.128680369120142E+000  7.218348129691785E+000 
 7.309143771844550E+000  7.401081482582222E+000  7.494175627359163E+000  7.588440752324911E+000 
 7.683891586597000E+000  7.780543044562507E+000  7.878410228208351E+000  7.977508429481102E+000 
 8.077853132676340E+000  8.179460016858066E+000  8.282344958308681E+000  8.386524033009577E+000 
 8.492013519153147E+000  8.598829899686237E+000  8.706989864885593E+000  8.816510314965859E+000 
 8.927408362720154E+000  9.039701336194078E+000  9.153406781393214E+000  9.268542465024675E+000 
 9.385126377273309E+000  9.503176734612564E+000  9.622711982650964E+000  9.743750799014233E+000 
 9.866312096263643E+000  9.990415024851281E+000  1.011607897611219E+001  1.024332358529444E+001 
 1.037216873462712E+001  1.050263455642690E+001  1.063474143624392E+001  1.076851001604688E+001 
 1.090396119744855E+001  1.104111614497163E+001  1.117999628935566E+001  1.132062333090581E+001 
 1.146301924288337E+001  1.160720627493933E+001  1.175320695659082E+001  1.190104410074133E+001 
 1.205074080724547E+001  1.220232046651815E+001  1.235580676318953E+001  1.251122367980576E+001 
 1.266859550057623E+001  1.282794681516814E+001  1.298930252254856E+001  1.315268783487507E+001 