<UPF version="2.0.1">
  <PP_INFO>
    Generated using "atomic" code by A. Dal Corso  v.6.1 svn rev. 13369
    Author: ADC
    Generation date: 16Nov2017
    Pseudopotential type: PAW
    Element: Pr
    Functional:  SLA  PW   PBX  PBC

    Suggested minimum cutoff for wavefunctions:  41. Ry
    Suggested minimum cutoff for charge density: 309. Ry
    The Pseudo was generated with a Scalar-Relativistic Calculation
    Local Potential by smoothing AE potential with Bessel fncs, cutoff radius:   2.0000
    Pseudopotential contains additional information for GIPAW reconstruction.

    Valence configuration: 
    nl pn  l   occ       Rcut    Rcut US       E pseu
    5S  1  0  2.00      1.300      1.600    -3.142979
    6S  2  0  1.50      1.300      1.600    -0.304449
    5P  2  1  6.00      1.400      1.800    -1.805127
    6P  3  1  0.50      1.400      1.800    -0.119191
    5D  3  2  1.00      1.100      1.700    -0.255307
    Generation configuration:
    5S  1  0  2.00      1.300      1.600    -3.143012
    6S  2  0  1.50      1.300      1.600    -0.304456
    5P  2  1  6.00      1.400      1.800    -1.805148
    6P  3  1  0.50      1.400      1.800    -0.119194
    5D  3  2  1.00      1.100      1.700    -0.255321
    5D  3  2  0.00      1.100      1.700     2.000000

    Pseudization used: troullier-martins
<PP_INPUTFILE>
 &input
   title='Pr',
   zed=59.0,
   rel=1,
   config='[Xe] 4f2.0 5d1.0 6s1.5 6p0.5',
   iswitch=3,
   dft='PBE'
 /
 &inputp
   lpaw=.true.,
   pseudotype=3,
   file_pseudopw='Pr.pbe-spdn-kjpaw_psl.1.0.0.UPF',
   author='ADC',
   lloc=-1,
   rcloc=2.0,
   which_augfun='PSQ',
   rmatch_augfun_nc=.true.,
   nlcc=.true.,
   new_core_ps=.true.,
   rcore=1.4,
   tm=.true.
 /
6
5S  1  0  2.00  0.00  1.30  1.60  0.0
6S  2  0  1.50  0.00  1.30  1.60  0.0
5P  2  1  6.00  0.00  1.40  1.80  0.0
6P  3  1  0.50  0.00  1.40  1.80  0.0
5D  3  2  1.00  0.00  1.10  1.70  0.0
5D  3  2  0.00  2.00  1.10  1.70  0.0
</PP_INPUTFILE>
  </PP_INFO>
  <!--                               -->
  <!-- END OF HUMAN READABLE SECTION -->
  <!--                               -->
  <PP_HEADER generated='Generated using "atomic" code by A. Dal Corso  v.6.1 svn rev. 13369'
             author="ADC"
             date="16Nov2017"
             comment=""
             element="Pr"
             pseudo_type="PAW"
             relativistic="scalar"
             is_ultrasoft="T"
             is_paw="T"
             is_coulomb="F"
             has_so="F"
             has_wfc="T"
             has_gipaw="T"
             paw_as_gipaw="T"
             core_correction="T"
             functional=" SLA  PW   PBX  PBC"
             z_valence="1.100000000000000E+001"
             total_psenergy="-4.849904866945271E+002"
             wfc_cutoff="4.100563932057797E+001"
             rho_cutoff="3.092827212684134E+002"
             l_max="2"
             l_max_rho="4"
             l_local="-1"
             mesh_size="1255"
             number_of_wfc="5"
             number_of_proj="6"/>
  <PP_MESH dx="1.250000000000000E-002" mesh="1255" xmin="-7.000000000000000E+000" rmax="1.000000000000000E+002"
zmesh="5.900000000000000E+001">
    <PP_R type="real" size="1255" columns="4">
 1.545562653482231E-005  1.565003438422072E-005  1.584688758333190E-005  1.604621689086871E-005 
 1.624805345244101E-005  1.645242880542218E-005  1.665937488387693E-005  1.686892402355104E-005 
 1.708110896692390E-005  1.729596286832465E-005  1.751351929911249E-005  1.773381225292235E-005 
 1.795687615097644E-005  1.818274584746266E-005  1.841145663498064E-005  1.864304425005624E-005 
 1.887754487872548E-005  1.911499516218869E-005  1.935543220253572E-005  1.959889356854335E-005 
 1.984541730154533E-005  2.009504192137649E-005  2.034780643239154E-005  2.060375032955957E-005 
 2.086291360463527E-005  2.112533675240762E-005  2.139106077702736E-005  2.166012719841397E-005 
 2.193257805874319E-005  2.220845592901627E-005  2.248780391571172E-005  2.277066566752079E-005 
 2.305708538216769E-005  2.334710781331555E-005  2.364077827755930E-005  2.393814266150647E-005 
 2.423924742894702E-005  2.454413962811348E-005  2.485286689903225E-005  2.516547748096757E-005 
 2.548202021995885E-005  2.580254457645308E-005  2.612710063303305E-005  2.645573910224292E-005 
 2.678851133451216E-005  2.712546932617906E-005  2.746666572761537E-005  2.781215385145298E-005 
 2.816198768091413E-005  2.851622187824646E-005  2.887491179326397E-005  2.923811347199563E-005 
 2.960588366544271E-005  2.997827983844611E-005  3.035536017866559E-005  3.073718360567145E-005 
 3.112380978015097E-005  3.151529911323053E-005  3.191171277591487E-005  3.231311270864536E-005 
 3.271956163097812E-005  3.313112305138418E-005  3.354786127717283E-005  3.396984142453964E-005 
 3.439712942874125E-005  3.482979205439761E-005  3.526789690592422E-005  3.571151243809549E-005 
 3.616070796674081E-005  3.661555367957550E-005  3.707612064716754E-005  3.754248083404266E-005 
 3.801470710992887E-005  3.849287326114249E-005  3.897705400211756E-005  3.946732498707990E-005 
 3.996376282186835E-005  4.046644507590463E-005  4.097545029431362E-005  4.149085801019632E-005 
 4.201274875705692E-005  4.254120408138642E-005  4.307630655540438E-005  4.361813978996101E-005 
 4.416678844760166E-005  4.472233825579528E-005  4.528487602032967E-005  4.585448963887503E-005 
 4.643126811471811E-005  4.701530157066930E-005  4.760668126314428E-005  4.820549959642318E-005 
 4.881185013708886E-005  4.942582762864691E-005  5.004752800632960E-005  5.067704841208576E-005 
 5.131448720975958E-005  5.195994400046005E-005  5.261351963812388E-005  5.327531624527424E-005 
 5.394543722897740E-005  5.462398729700045E-005  5.531107247417200E-005  5.600680011894884E-005 
 5.671127894019105E-005  5.742461901414766E-005  5.814693180165652E-005  5.887833016556023E-005 
 5.961892838834116E-005  6.036884218997847E-005  6.112818874602933E-005  6.189708670593802E-005 
 6.267565621157512E-005  6.346401891600983E-005  6.426229800251878E-005  6.507061820383328E-005 
 6.588910582162932E-005  6.671788874626243E-005  6.755709647675069E-005  6.840686014100947E-005 
 6.926731251634012E-005  7.013858805017690E-005  7.102082288109457E-005  7.191415486008034E-005 
 7.281872357207356E-005  7.373467035777574E-005  7.466213833573570E-005  7.560127242471190E-005 
 7.655221936631637E-005  7.751512774794362E-005  7.849014802598722E-005  7.947743254934934E-005 
 8.047713558324538E-005  8.148941333330823E-005  8.251442396999598E-005  8.355232765330597E-005 
 8.460328655780029E-005  8.566746489794600E-005  8.674502895377376E-005  8.783614709685973E-005 
 8.894098981663364E-005  9.005972974701822E-005  9.119254169340373E-005  9.233960265996144E-005 
 9.350109187730122E-005  9.467719083047626E-005  9.586808328734081E-005  9.707395532726415E-005 
 9.829499537020579E-005  9.953139420615682E-005  1.007833450249507E-004  1.020510434464501E-004 
 1.033346875511125E-004  1.046344779109407E-004  1.059506176208231E-004  1.072833123302669E-004 
 1.086327702755319E-004  1.099992023121676E-004  1.113828219479595E-004  1.127838453762911E-004 
 1.142024915099232E-004  1.156389820152005E-004  1.170935413466870E-004  1.185663967822375E-004 
 1.200577784585106E-004  1.215679194069271E-004  1.230970555900829E-004  1.246454259386176E-004 
 1.262132723885481E-004  1.278008399190725E-004  1.294083765908468E-004  1.310361335847470E-004 
 1.326843652411148E-004  1.343533290994999E-004  1.360432859389010E-004  1.377544998185120E-004 
 1.394872381189836E-004  1.412417715842002E-004  1.430183743635853E-004  1.448173240549381E-004 
 1.466389017478074E-004  1.484833920674140E-004  1.503510832191230E-004  1.522422670334765E-004 
 1.541572390117936E-004  1.560962983723414E-004  1.580597480970903E-004  1.600478949790544E-004 
 1.620610496702289E-004  1.640995267301304E-004  1.661636446749462E-004  1.682537260273053E-004 
 1.703700973666709E-004  1.725130893803707E-004  1.746830369152669E-004  1.768802790300763E-004 
 1.791051590483501E-004  1.813580246121174E-004  1.836392277362060E-004  1.859491248632456E-004 
 1.882880769193611E-004  1.906564493705706E-004  1.930546122798877E-004  1.954829403651461E-004 
 1.979418130575501E-004  2.004316145609596E-004  2.029527339119258E-004  2.055055650404762E-004 
 2.080905068316684E-004  2.107079631879168E-004  2.133583430921017E-004  2.160420606714757E-004 
 2.187595352623707E-004  2.215111914757200E-004  2.242974592634058E-004  2.271187739854378E-004 
 2.299755764779819E-004  2.328683131222397E-004  2.357974359141969E-004  2.387634025352498E-004 
 2.417666764237162E-004  2.448077268472522E-004  2.478870289761733E-004  2.510050639577017E-004 
 2.541623189911477E-004  2.573592874040330E-004  2.605964687291768E-004  2.638743687827473E-004 
 2.671934997432964E-004  2.705543802317902E-004  2.739575353926419E-004  2.774034969757700E-004 
 2.808928034196823E-004  2.844259999356095E-004  2.880036385926964E-004  2.916262784042607E-004 
 2.952944854151443E-004  2.990088327901553E-004  3.027699009036277E-004  3.065782774301070E-004 
 3.104345574361725E-004  3.143393434734218E-004  3.182932456726171E-004  3.222968818390213E-004 
 3.263508775489310E-004  3.304558662474236E-004  3.346124893473353E-004  3.388213963294819E-004 
 3.430832448441422E-004  3.473987008138180E-004  3.517684385372838E-004  3.561931407949497E-004 
 3.606734989555453E-004  3.652102130841487E-004  3.698039920515724E-004  3.744555536451262E-004 
 3.791656246807729E-004  3.839349411166944E-004  3.887642481682870E-004  3.936543004246030E-004 
 3.986058619662560E-004  4.036197064848115E-004  4.086966174036759E-004  4.138373880005091E-004 
 4.190428215311763E-004  4.243137313552567E-004  4.296509410631347E-004  4.350552846046853E-004 
 4.405276064195822E-004  4.460687615692426E-004  4.516796158704319E-004  4.573610460305506E-004 
 4.631139397846198E-004  4.689391960339928E-004  4.748377249868105E-004  4.808104483002221E-004 
 4.868582992243972E-004  4.929822227483471E-004  4.991831757475811E-004  5.054621271336222E-004 
 5.118200580053983E-004  5.182579618025440E-004  5.247768444606253E-004  5.313777245683201E-004 
 5.380616335265754E-004  5.448296157097638E-004  5.516827286288717E-004  5.586220430967350E-004 
 5.656486433953573E-004  5.727636274453315E-004  5.799681069773904E-004  5.872632077061191E-004 
 5.946500695058481E-004  6.021298465887621E-004  6.097037076852486E-004  6.173728362265124E-004 
 6.251384305294917E-004  6.330017039840953E-004  6.409638852427980E-004  6.490262184126214E-004 
 6.571899632495256E-004  6.654563953552512E-004  6.738268063766326E-004  6.823025042074212E-004 
 6.908848131926479E-004  6.995750743355516E-004  7.083746455071173E-004  7.172849016582426E-004 
 7.263072350345794E-004  7.354430553940741E-004  7.446937902272444E-004  7.540608849802292E-004 
 7.635458032806410E-004  7.731500271662611E-004  7.828750573166122E-004  7.927224132874403E-004 
 8.026936337481513E-004  8.127902767222283E-004  8.230139198306775E-004  8.333661605385354E-004 
 8.438486164044736E-004  8.544629253335488E-004  8.652107458331257E-004  8.760937572720239E-004 
 8.871136601429217E-004  8.982721763280644E-004  9.095710493683074E-004  9.210120447355507E-004 
 9.325969501085976E-004  9.443275756524813E-004  9.562057543013110E-004  9.682333420446660E-004 
 9.804122182176015E-004  9.927442857942976E-004  1.005231471685402E-003  1.017875727039118E-003 
 1.030679027546067E-003  1.043643373748004E-003  1.056770791350398E-003  1.070063331538956E-003 
 1.083523071300128E-003  1.097152113745637E-003  1.110952588441091E-003  1.124926651738740E-003 
 1.139076487114403E-003  1.153404305508647E-003  1.167912345672247E-003  1.182602874515994E-003 
 1.197478187464909E-003  1.212540608816902E-003  1.227792492105957E-003  1.243236220469867E-003 
 1.258874207022609E-003  1.274708895231397E-003  1.290742759298480E-003  1.306978304547741E-003 
 1.323418067816156E-003  1.340064617850181E-003  1.356920555707128E-003  1.373988515161580E-003 
 1.391271163116929E-003  1.408771200022077E-003  1.426491360293397E-003  1.444434412741981E-003 
 1.462603161006280E-003  1.481000443990176E-003  1.499629136306565E-003  1.518492148726521E-003 
 1.537592428634111E-003  1.556932960486930E-003  1.576516766282432E-003  1.596346906030113E-003 
 1.616426478229655E-003  1.636758620355066E-003  1.657346509344916E-003  1.678193362098751E-003 
 1.699302435979725E-003  1.720677029323578E-003  1.742320481954007E-003  1.764236175704519E-003 
 1.786427534946853E-003  1.808898027126038E-003  1.831651163302192E-003  1.854690498699135E-003 
 1.878019633259898E-003  1.901642212209216E-003  1.925561926623115E-003  1.949782514005634E-003 
 1.974307758872831E-003  1.999141493344112E-003  2.024287597741010E-003  2.049750001193503E-003 
 2.075532682253931E-003  2.101639669518666E-003  2.128075042257582E-003  2.154842931051450E-003 
 2.181947518437360E-003  2.209393039562232E-003  2.237183782844581E-003  2.265324090644585E-003 
 2.293818359942588E-003  2.322671043026144E-003  2.351886648185683E-003  2.381469740418952E-003 
 2.411424942144299E-003  2.441756933922937E-003  2.472470455190295E-003  2.503570304996557E-003 
 2.535061342756528E-003  2.566948489008927E-003  2.599236726185228E-003  2.631931099388187E-003 
 2.665036717180130E-003  2.698558752381192E-003  2.732502442877574E-003  2.766873092439973E-003 
 2.801676071552315E-003  2.836916818250891E-003  2.872600838974071E-003  2.908733709422693E-003 
 2.945321075431274E-003  2.982368653850195E-003  3.019882233438958E-003  3.057867675770693E-003 
 3.096330916148047E-003  3.135277964530581E-003  3.174714906473848E-003  3.214647904080260E-003 
 3.255083196961936E-003  3.296027103215655E-003  3.337486020410069E-003  3.379466426585342E-003 
 3.421974881265347E-003  3.465018026482612E-003  3.508602587816149E-003  3.552735375442336E-003 
 3.597423285199036E-003  3.642673299663062E-003  3.688492489241237E-003  3.734888013275152E-003 
 3.781867121159827E-003  3.829437153476456E-003  3.877605543139364E-003  3.926379816557439E-003 
 3.975767594810132E-003  4.025776594838273E-003  4.076414630649868E-003  4.127689614541030E-003 
 4.179609558332315E-003  4.232182574620572E-003  4.285416878046551E-003  4.339320786578476E-003 
 4.393902722811723E-003  4.449171215284872E-003  4.505134899812318E-003  4.561802520833625E-003 
 4.619182932779875E-003  4.677285101457173E-003  4.736118105447584E-003  4.795691137527679E-003 
 4.856013506104917E-003  4.917094636672125E-003  4.978944073280219E-003  5.041571480029504E-003 
 5.104986642579700E-003  5.169199469678971E-003  5.234219994712202E-003  5.300058377268710E-003 
 5.366724904729718E-003  5.434229993875778E-003  5.502584192514402E-003  5.571798181128206E-003 
 5.641882774543723E-003  5.712848923621262E-003  5.784707716965999E-003  5.857470382660586E-003 
 5.931148290019584E-003  6.005752951365913E-003  6.081296023829692E-003  6.157789311169686E-003 
 6.235244765617667E-003  6.313674489745983E-003  6.393090738358594E-003  6.473505920405917E-003 
 6.554932600923755E-003  6.637383502996593E-003  6.720871509745643E-003  6.805409666341810E-003 
 6.891011182044057E-003  6.977689432263369E-003  7.065457960652685E-003  7.154330481223145E-003 
 7.244320880486895E-003  7.335443219626907E-003  7.427711736694061E-003  7.521140848831862E-003 
 7.615745154529181E-003  7.711539435901249E-003  7.808538660999425E-003  7.906757986149978E-003 
 8.006212758322282E-003  8.106918517526849E-003  8.208890999243434E-003  8.312146136879769E-003 
 8.416700064261184E-003  8.522569118151541E-003  8.629769840805920E-003  8.738318982555327E-003 
 8.848233504424007E-003  8.959530580779623E-003  9.072227602016784E-003  9.186342177274360E-003 
 9.301892137186891E-003  9.418895536670706E-003  9.537370657745020E-003  9.657336012388525E-003 
 9.778810345431979E-003  9.901812637487052E-003  1.002636210791213E-002  1.015247821781535E-002 
 1.028018067309548E-002  1.040948942752098E-002  1.054042468584780E-002  1.067300690697645E-002 
 1.080725680714871E-002  1.094319536318461E-002  1.108084381576013E-002  1.122022367272600E-002 
 1.136135671246847E-002  1.150426498731212E-002  1.164897082696563E-002  1.179549684201088E-002 
 1.194386592743582E-002  1.209410126621191E-002  1.224622633291648E-002  1.240026489740071E-002 
 1.255624102850370E-002  1.271417909781325E-002  1.287410378347405E-002  1.303604007404358E-002 
 1.320001327239669E-002  1.336604899967927E-002  1.353417319931148E-002  1.370441214104157E-002 
 1.387679242505055E-002  1.405134098610848E-002  1.422808509778318E-002  1.440705237670167E-002 
 1.458827078686539E-002  1.477176864401964E-002  1.495757462007789E-002  1.514571774760196E-002 
 1.533622742433830E-002  1.552913341781149E-002  1.572446586997548E-002  1.592225530192332E-002 
 1.612253261865617E-002  1.632532911391224E-002  1.653067647505650E-002  1.673860678803190E-002 
 1.694915254237288E-002  1.716234663628194E-002  1.737822238176999E-002  1.759681350986145E-002 
 1.781815417586483E-002  1.804227896470948E-002  1.826922289634969E-002  1.849902143123647E-002 
 1.873171047585845E-002  1.896732638835223E-002  1.920590598418350E-002  1.944748654189953E-002 
 1.969210580895396E-002  1.993980200760493E-002  2.019061384088744E-002  2.044458049866069E-002 
 2.070174166373170E-002  2.096213751805568E-002  2.122580874901466E-002  2.149279655577492E-002 
 2.176314265572443E-002  2.203688929099138E-002  2.231407923504444E-002  2.259475579937633E-002 
 2.287896284027125E-002  2.316674476565756E-002  2.345814654204664E-002  2.375321370155888E-002 
 2.405199234903827E-002  2.435452916925636E-002  2.466087143420680E-002  2.497106701049179E-002 
 2.528516436680120E-002  2.560321258148599E-002  2.592526135022678E-002  2.625136099379887E-002 
 2.658156246593507E-002  2.691591736128719E-002  2.725447792348786E-002  2.759729705331375E-002 
 2.794442831695133E-002  2.829592595436683E-002  2.865184488778122E-002  2.901224073025195E-002 
 2.937716979436265E-002  2.974668910102201E-002  3.012085638837354E-002  3.049973012081711E-002 
 3.088336949814424E-002  3.127183446478815E-002  3.166518571919021E-002  3.206348472328424E-002 
 3.246679371209994E-002  3.287517570348737E-002  3.328869450796353E-002  3.370741473868291E-002 
 3.413140182153351E-002  3.456072200535959E-002  3.499544237231335E-002  3.543563084833656E-002 
 3.588135621377415E-002  3.633268811412135E-002  3.678969707090581E-002  3.725245449270683E-002 
 3.772103268631304E-002  3.819550486802049E-002  3.867594517507295E-002  3.916242867724584E-002 
 3.965503138857614E-002  4.015383027923969E-002  4.065890328757794E-002  4.117032933227608E-002 
 4.168818832469408E-002  4.221256118135309E-002  4.274352983657881E-002  4.328117725530384E-002 
 4.382558744603130E-002  4.437684547396105E-002  4.493503747428149E-002  4.550025066562834E-002 
 4.607257336371263E-002  4.665209499512046E-002  4.723890611128562E-002  4.783309840263898E-002 
 4.843476471293501E-002  4.904399905375866E-002  4.966089661921533E-002  5.028555380080455E-002 
 5.091806820248190E-002  5.155853865590958E-002  5.220706523589883E-002  5.286374927604738E-002 
 5.352869338457236E-002  5.420200146034364E-002  5.488377870911802E-002  5.557413165997752E-002 
 5.627316818197545E-002  5.698099750099034E-002  5.769773021679352E-002  5.842347832033012E-002 
 5.915835521121765E-002  5.990247571546565E-002  6.065595610341662E-002  6.141891410791425E-002 
 6.219146894269910E-002  6.297374132103566E-002  6.376585347457482E-002  6.456792917245191E-002 
 6.538009374062666E-002  6.620247408146533E-002  6.703519869356911E-002  6.787839769185304E-002 
 6.873220282787587E-002  6.959674751042731E-002  7.047216682637306E-002  7.135859756176204E-002 
 7.225617822320038E-002  7.316504905949228E-002  7.408535208355520E-002  7.501723109460912E-002 
 7.596083170064516E-002  7.691630134117809E-002  7.788378931028288E-002  7.886344677992320E-002 
 7.985542682357194E-002  8.085988444012886E-002  8.187697657814040E-002  8.290686216032214E-002 
 8.394970210839175E-002  8.500565936821293E-002  8.607489893525562E-002  8.715758788037782E-002 
 8.825389537592966E-002  8.936399272218797E-002  9.048805337412169E-002  9.162625296849435E-002 
 9.277876935130856E-002  9.394578260559362E-002  9.512747507954500E-002  9.632403141501607E-002 
 9.753563857636832E-002  9.876248587968610E-002  1.000047650223562E-001  1.012626701130224E-001 
 1.025363977019144E-001  1.038261468115591E-001  1.051321189678792E-001  1.064545182316808E-001 
 1.077935512305395E-001  1.091494271910858E-001  1.105223579716968E-001  1.119125580956006E-001 
 1.133202447843944E-001  1.147456379919877E-001  1.161889604389692E-001  1.176504376474074E-001 
 1.191302979760898E-001  1.206287726562033E-001  1.221460958274655E-001  1.236825045747091E-001 
 1.252382389649263E-001  1.268135420847811E-001  1.284086600785906E-001  1.300238421867869E-001 
 1.316593407848606E-001  1.333154114227948E-001  1.349923128649963E-001  1.366903071307267E-001 
 1.384096595350449E-001  1.401506387302623E-001  1.419135167479197E-001  1.436985690412946E-001 
 1.455060745284389E-001  1.473363156357627E-001  1.491895783421629E-001  1.510661522237074E-001 
 1.529663304988836E-001  1.548904100744123E-001  1.568386915916422E-001  1.588114794735243E-001 
 1.608090819721784E-001  1.628318112170595E-001  1.648799832637269E-001  1.669539181432302E-001 
 1.690539399121140E-001  1.711803767030518E-001  1.733335607761188E-001  1.755138285707067E-001 
 1.777215207580944E-001  1.799569822946782E-001  1.822205624758704E-001  1.845126149906805E-001 
 1.868334979769763E-001  1.891835740774468E-001  1.915632104962642E-001  1.939727790564597E-001 
 1.964126562580238E-001  1.988832233367324E-001  2.013848663237186E-001  2.039179761057888E-001 
 2.064829484864995E-001  2.090801842480045E-001  2.117100892136748E-001  2.143730743115122E-001 
 2.170695556383566E-001  2.197999545249006E-001  2.225646976015259E-001  2.253642168649625E-001 
 2.281989497457917E-001  2.310693391767926E-001  2.339758336621542E-001  2.369188873475533E-001 
 2.398989600911154E-001  2.429165175352703E-001  2.459720311795072E-001  2.490659784540498E-001 
 2.521988427944551E-001  2.553711137171490E-001  2.585832868959183E-001  2.618358642393564E-001 
 2.651293539692910E-001  2.684642707001937E-001  2.718411355195877E-001  2.752604760694722E-001 
 2.787228266287637E-001  2.822287281967821E-001  2.857787285777805E-001  2.893733824665400E-001 
 2.930132515350451E-001  2.966989045202422E-001  3.004309173129092E-001  3.042098730476382E-001 
 3.080363621939503E-001  3.119109826485605E-001  3.158343398287969E-001  3.198070467672014E-001 
 3.238297242073164E-001  3.279030007006749E-001  3.320275127050173E-001  3.362039046837345E-001 
 3.404328292065706E-001  3.447149470515869E-001  3.490509273084074E-001  3.534414474827701E-001 
 3.578871936023835E-001  3.623888603241245E-001  3.669471510425775E-001  3.715627779999402E-001 
 3.762364623973163E-001  3.809689345074004E-001  3.857609337885886E-001  3.906132090005187E-001 
 3.955265183210631E-001  4.005016294648008E-001  4.055393198029686E-001  4.106403764849318E-001 
 4.158055965611758E-001  4.210357871078449E-001  4.263317653528542E-001  4.316943588035779E-001 
 4.371244053761536E-001  4.426227535264067E-001  4.481902623824204E-001  4.538278018787823E-001 
 4.595362528925069E-001  4.653165073806796E-001  4.711694685198253E-001  4.770960508470281E-001 
 4.830971804028359E-001  4.891737948759498E-001  4.953268437497448E-001  5.015572884506267E-001 
 5.078661024982547E-001  5.142542716576604E-001  5.207227940932700E-001  5.272726805248756E-001 
 5.339049543855587E-001  5.406206519816017E-001  5.474208226544190E-001  5.543065289445114E-001 
 5.612788467574968E-001  5.683388655322198E-001  5.754876884109754E-001  5.827264324118853E-001 
 5.900562286034245E-001  5.974782222811617E-001  6.049935731467103E-001  6.126034554889311E-001 
 6.203090583674243E-001  6.281115857983152E-001  6.360122569423897E-001  6.440123062955899E-001 
 6.521129838819006E-001  6.603155554486784E-001  6.686213026644162E-001  6.770315233190158E-001 
 6.855475315265667E-001  6.941706579306746E-001  7.029022499123867E-001  7.117436718007121E-001 
 7.206963050858098E-001  7.297615486348468E-001  7.389408189105680E-001  7.482355501926320E-001 
 7.576471948017095E-001  7.671772233264197E-001  7.768271248531105E-001  7.865984071985250E-001 
 7.964925971454127E-001  8.065112406810797E-001  8.166559032389630E-001  8.269281699432282E-001 
 8.373296458564439E-001  8.478619562303866E-001  8.585267467599774E-001  8.693256838404356E-001 
 8.802604548276524E-001  8.913327683018382E-001  9.025443543345033E-001  9.138969647587724E-001 
 9.253923734431226E-001  9.370323765685507E-001  9.488187929092230E-001  9.607534641166757E-001 
 9.728382550075634E-001  9.850750538550506E-001  9.974657726838553E-001  1.010012347569000E+000 
 1.022716738938340E+000  1.035580931878871E+000  1.048606936446913E+000  1.061796787982185E+000 
 1.075152547425819E+000  1.088676301642406E+000  1.102370163746051E+000  1.116236273430571E+000 
 1.130276797303817E+000  1.144493929226206E+000  1.158889890653529E+000  1.173466930984045E+000 
 1.188227327909964E+000  1.203173387773338E+000  1.218307445926425E+000  1.233631867096606E+000 
 1.249149045755862E+000  1.264861406494931E+000  1.280771404402147E+000  1.296881525447049E+000 
 1.313194286868830E+000  1.329712237569647E+000  1.346437958512904E+000  1.363374063126531E+000 
 1.380523197711324E+000  1.397888041854460E+000  1.415471308848157E+000  1.433275746113661E+000 
 1.451304135630520E+000  1.469559294371269E+000  1.488044074741609E+000  1.506761365026073E+000 
 1.525714089839353E+000  1.544905210583262E+000  1.564337725909456E+000  1.584014672187996E+000 
 1.603939123981765E+000  1.624114194526896E+000  1.644543036219211E+000  1.665228841106781E+000 
 1.686174841388711E+000  1.707384309920155E+000  1.728860560723724E+000  1.750606949507303E+000 
 1.772626874188377E+000  1.794923775424983E+000  1.817501137153298E+000  1.840362487132027E+000 
 1.863511397493621E+000  1.886951485302413E+000  1.910686413119819E+000  1.934719889576594E+000 
 1.959055669952333E+000  1.983697556762236E+000  2.008649400351243E+000  2.033915099495688E+000 
 2.059498602012457E+000  2.085403905375874E+000  2.111635057342296E+000  2.138196156582579E+000 
 2.165091353322526E+000  2.192324849991338E+000  2.219900901878281E+000  2.247823817797570E+000 
 2.276097960761619E+000  2.304727748662799E+000  2.333717654963707E+000  2.363072209396189E+000 
 2.392795998669102E+000  2.422893667184983E+000  2.453369917765782E+000  2.484229512387647E+000 
 2.515477272925027E+000  2.547118081904085E+000  2.579156883265587E+000  2.611598683137439E+000 
 2.644448550616866E+000  2.677711618562499E+000  2.711393084396384E+000  2.745498210916073E+000 
 2.780032327116983E+000  2.815000829025019E+000  2.850409180539753E+000  2.886262914288155E+000 
 2.922567632489057E+000  2.959329007828550E+000  2.996552784346313E+000  3.034244778333164E+000 
 3.072410879239853E+000  3.111057050597288E+000  3.150189330948378E+000  3.189813834791534E+000 
 3.229936753536101E+000  3.270564356469773E+000  3.311702991738152E+000  3.353359087336707E+000 
 3.395539152115116E+000  3.438249776794320E+000  3.481497634996328E+000  3.525289484286960E+000 
 3.569632167231775E+000  3.614532612465188E+000  3.659997835773121E+000  3.706034941189223E+000 
 3.752651122104867E+000  3.799853662393174E+000  3.847649937547086E+000  3.896047415831845E+000 
 3.945053659451903E+000  3.994676325732519E+000  4.044923168316269E+000  4.095802038374521E+000 
 4.147320885834244E+000  4.199487760620175E+000  4.252310813912620E+000  4.305798299421141E+000 
 4.359958574674152E+000  4.414800102324861E+000  4.470331451473546E+000  4.526561299006477E+000 
 4.583498430951746E+000  4.641151743852043E+000  4.699530246154813E+000  4.758643059619822E+000 
 4.818499420744423E+000  4.879108682206836E+000  4.940480314327461E+000  5.002623906548683E+000 
 5.065549168933230E+000  5.129265933681354E+000  5.193784156667197E+000  5.259113918994346E+000 
 5.325265428571088E+000  5.392249021705391E+000  5.460075164719941E+000  5.528754455587599E+000 
 5.598297625587270E+000  5.668715540980763E+000  5.740019204710636E+000  5.812219758119396E+000 
 5.885328482690425E+000  5.959356801810658E+000  6.034316282555578E+000  6.110218637496572E+000 
 6.187075726530998E+000  6.264899558735411E+000  6.343702294241901E+000  6.423496246138230E+000 
 6.504293882391733E+000  6.586107827797437E+000  6.668950865950787E+000  6.752835941245016E+000 
 6.837776160893815E+000  6.923784796979331E+000  7.010875288525912E+000  7.099061243600072E+000 
 7.188356441436688E+000  7.278774834592101E+000  7.370330551124214E+000  7.463037896799982E+000 
 7.556911357330806E+000  7.651965600635856E+000  7.748215479134050E+000  7.845676032064739E+000 
 7.944362487837576E+000  8.044290266412084E+000  8.145474981706938E+000  8.247932444039783E+000 
 8.351678662597573E+000  8.456729847938000E+000  8.563102414522534E+000  8.670812983281088E+000 
 8.779878384209185E+000  8.890315658997634E+000  9.002142063695274E+000  9.115375071405380E+000 
 9.230032375015753E+000  9.346131889963369E+000  9.463691757033661E+000  9.582730345195003E+000 
 9.703266254469014E+000  9.825318318836720E+000  9.948905609181505E+000  1.007404743626895E+001 
 1.020076335376411E+001  1.032907316128692E+001  1.045899690750582E+001  1.059055489327052E+001 
 1.072376767478397E+001  1.085865606681425E+001  1.099524114594710E+001  1.113354425387898E+001 
 1.127358700075190E+001  1.141539126852999E+001  1.155897921441857E+001  1.170437327432635E+001 
 1.185159616637095E+001  1.200067089442880E+001  1.215162075172949E+001  1.230446932449528E+001 
 1.245924049562668E+001  1.261595844843402E+001  1.277464767041629E+001  1.293533295708732E+001 
 1.309803941585000E+001  1.326279246991960E+001  1.342961786229597E+001  1.359854165978608E+001 
 1.376959025707702E+001  1.394279038086004E+001  1.411816909400693E+001  1.429575379979836E+001 
 1.447557224620596E+001  1.465765253022783E+001  1.484202310227874E+001  1.502871277063575E+001 