<UPF version="2.0.1">
  <PP_INFO>
    Generated using "atomic" code by A. Dal Corso  v.6.1 svn rev. 13369
    Author: ADC
    Generation date: 16Nov2017
    Pseudopotential type: USPP
    Element: Pu
    Functional: PBE

    Suggested minimum cutoff for wavefunctions:  45. Ry
    Suggested minimum cutoff for charge density: 351. Ry
    The Pseudo was generated with a Scalar-Relativistic Calculation
    Local Potential by smoothing AE potential with Bessel fncs, cutoff radius:   2.1000
    Pseudopotential contains additional information for GIPAW reconstruction.

    Valence configuration: 
    nl pn  l   occ       Rcut    Rcut US       E pseu
    6S  1  0  2.00      1.400      1.600    -3.933083
    7S  2  0  2.00      1.400      1.600    -0.336790
    6P  2  1  6.00      1.400      2.100    -1.897158
    6D  3  2  1.50      1.500      2.200    -0.191369
    5F  4  3  4.50      1.300      1.900    -0.502361
    Generation configuration:
    6S  1  0  2.00      1.400      1.600    -3.933138
    7S  2  0  2.00      1.400      1.600    -0.336801
    6P  2  1  6.00      1.400      2.100    -1.897195
    7P  3  1  0.00      1.400      2.100     5.000000
    6D  3  2  1.50      1.500      2.200    -0.191385
    6D  3  2  0.00      1.500      2.200     4.800000
    5F  4  3  4.50      1.300      1.900    -0.502423
    5F  4  3  0.00      1.300      1.900     3.100000

    Pseudization used: troullier-martins
<PP_INPUTFILE>
 &input
   title='Pu',
   zed=94.0,
   rel=1,
   config='[Rn] 6d1.5 7s2.0 7p0. 5f4.5',
   iswitch=3,
   dft='PBE'
 /
 &inputp
   lpaw=.false.,
   pseudotype=3,
   file_pseudopw='Pu.pbe-spfn-rrkjus_psl.1.0.0.UPF',
   author='ADC',
   lloc=-1,
   rcloc=2.1,
   which_augfun='PSQ',
   rmatch_augfun_nc=.true.,
   nlcc=.true.,
   new_core_ps=.true.,
   rcore=1.5,
   tm=.true.
 /
8
6S  1  0  2.00  0.00  1.40  1.60  0.0
7S  2  0  2.00  0.00  1.40  1.60  0.0
6P  2  1  6.00  0.00  1.40  2.10  0.0
7P  3  1  0.00  5.00  1.40  2.10  0.0
6D  3  2  1.50  0.00  1.50  2.20  0.0
6D  3  2  0.00  4.80  1.50  2.20  0.0
5F  4  3  4.50  0.00  1.30  1.90  0.0
5F  4  3  0.00  3.10  1.30  1.90  0.0
</PP_INPUTFILE>
  </PP_INFO>
  <!--                               -->
  <!-- END OF HUMAN READABLE SECTION -->
  <!--                               -->
  <PP_HEADER generated='Generated using "atomic" code by A. Dal Corso  v.6.1 svn rev. 13369'
             author="ADC"
             date="16Nov2017"
             comment=""
             element="Pu"
             pseudo_type="USPP"
             relativistic="scalar"
             is_ultrasoft="T"
             is_paw="F"
             is_coulomb="F"
             has_so="F"
             has_wfc="F"
             has_gipaw="T"
             paw_as_gipaw="F"
             core_correction="T"
             functional="PBE"
             z_valence="1.600000000000000E+001"
             total_psenergy="-1.632122892096992E+002"
             wfc_cutoff="4.522224041881918E+001"
             rho_cutoff="3.507174141881810E+002"
             l_max="3"
             l_max_rho="6"
             l_local="-1"
             mesh_size="1293"
             number_of_wfc="5"
             number_of_proj="8"/>
  <PP_MESH dx="1.250000000000000E-002" mesh="1293" xmin="-7.000000000000000E+000" rmax="1.000000000000000E+002"
zmesh="9.400000000000000E+001">
    <PP_R type="real" size="1293" columns="4">
 9.700871973984215E-006  9.822893922010875E-006  9.946450717197682E-006  1.007156166554525E-005 
 1.019824631589383E-005  1.032652446297775E-005  1.045641615051850E-005  1.058794167435650E-005 
 1.072112158562245E-005  1.085597669394845E-005  1.099252807071954E-005  1.113079705236615E-005 
 1.127080524369798E-005  1.141257452127975E-005  1.155612703684955E-005  1.170148522077998E-005 
 1.184867178558301E-005  1.199770972945886E-005  1.214862233988944E-005  1.230143319727721E-005 
 1.245616617862952E-005  1.261284546128950E-005  1.277149552671384E-005  1.293214116429803E-005 
 1.309480747524980E-005  1.325951987651117E-005  1.342630410472994E-005  1.359518622028111E-005 
 1.376619261133881E-005  1.393934999799957E-005  1.411468543645736E-005  1.429222632323114E-005 
 1.447200039944568E-005  1.465403575516614E-005  1.483836083378722E-005  1.502500443647746E-005 
 1.521399572667951E-005  1.540536423466697E-005  1.559913986215854E-005  1.579535288699029E-005 
 1.599403396784651E-005  1.619521414905034E-005  1.639892486541436E-005  1.660519794715247E-005 
 1.681406562485337E-005  1.702556053451664E-005  1.723971572265220E-005  1.745656465144389E-005 
 1.767614120397802E-005  1.789847968953767E-005  1.812361484896355E-005  1.835158186008236E-005 
 1.858241634320340E-005  1.881615436668426E-005  1.905283245256670E-005  1.929248758228314E-005 
 1.953515720243518E-005  1.978087923064469E-005  2.002969206147848E-005  2.028163457244762E-005 
 2.053674613008201E-005  2.079506659608156E-005  2.105663633354465E-005  2.132149621327488E-005 
 2.158968762016738E-005  2.186125245967510E-005  2.213623316435669E-005  2.241467270050674E-005 
 2.269661457486923E-005  2.298210284143569E-005  2.327118210832856E-005  2.356389754477146E-005 
 2.386029488814685E-005  2.416042045114263E-005  2.446432112898868E-005  2.477204440678419E-005 
 2.508363836691737E-005  2.539915169657844E-005  2.571863369536706E-005  2.604213428299556E-005 
 2.636970400708892E-005  2.670139405108296E-005  2.703725624222190E-005  2.737734305965638E-005 
 2.772170764264360E-005  2.807040379885023E-005  2.842348601276011E-005  2.878100945418752E-005 
 2.914302998689754E-005  2.950960417733498E-005  2.988078930346290E-005  3.025664336371242E-005 
 3.063722508604514E-005  3.102259393712944E-005  3.141281013163241E-005  3.180793464162830E-005 
 3.220802920612570E-005  3.261315634071429E-005  3.302337934733307E-005  3.343876232416149E-005 
 3.385937017563476E-005  3.428526862258539E-005  3.471652421251222E-005  3.515320432997853E-005 
 3.559537720714119E-005  3.604311193441183E-005  3.649647847125250E-005  3.695554765710695E-005 
 3.742039122246945E-005  3.789108180009287E-005  3.836769293633756E-005  3.885029910266323E-005 
 3.933897570726524E-005  3.983379910685724E-005  4.033484661860221E-005  4.084219653219323E-005 
 4.135592812208650E-005  4.187612165988812E-005  4.240285842689671E-005  4.293622072680382E-005 
 4.347629189855390E-005  4.402315632936635E-005  4.457689946792106E-005  4.513760783771000E-005 
 4.570536905055681E-005  4.628027182030605E-005  4.686240597668517E-005  4.745186247934045E-005 
 4.804873343204964E-005  4.865311209711354E-005  4.926509290992815E-005  4.988477149374054E-005 
 5.051224467459019E-005  5.114761049643814E-005  5.179096823648684E-005  5.244241842069204E-005 
 5.310206283947039E-005  5.377000456360441E-005  5.444634796034736E-005  5.513119870973112E-005 
 5.582466382107856E-005  5.652685164972421E-005  5.723787191394490E-005  5.795783571210346E-005 
 5.868685554000821E-005  5.942504530849042E-005  6.017252036120328E-005  6.092939749264452E-005 
 6.169579496640576E-005  6.247183253365162E-005  6.325763145183079E-005  6.405331450362297E-005 
 6.485900601612381E-005  6.567483188027129E-005  6.650091957051661E-005  6.733739816474199E-005 
 6.818439836442960E-005  6.904205251508391E-005  6.991049462691077E-005  7.078986039575717E-005 
 7.168028722431348E-005  7.258191424358328E-005  7.349488233462268E-005  7.441933415055330E-005 
 7.535541413885240E-005  7.630326856392233E-005  7.726304552994565E-005  7.823489500402591E-005 
 7.921896883962062E-005  8.021542080026890E-005  8.122440658361661E-005  8.224608384574544E-005 
 8.328061222580611E-005  8.432815337096271E-005  8.538887096165065E-005  8.646293073715118E-005 
 8.755050052148968E-005  8.865175024965754E-005  8.976685199416522E-005  9.089597999192922E-005 
 9.203931067149610E-005  9.319702268061094E-005  9.436929691413041E-005  9.555631654228847E-005 
 9.675826703931728E-005  9.797533621242702E-005  9.920771423115241E-005  1.004555936570661E-004 
 1.017191694738671E-004  1.029986391178478E-004  1.042942025087428E-004  1.056060620809682E-004 
 1.069344228152509E-004  1.082794922706582E-004  1.096414806170293E-004  1.110206006678139E-004 
 1.124170679133261E-004  1.138311005544141E-004  1.152629195365548E-004  1.167127485843775E-004 
 1.181808142366203E-004  1.196673458815284E-004  1.211725757926955E-004  1.226967391653577E-004 
 1.242400741531431E-004  1.258028219052832E-004  1.273852266042939E-004  1.289875355041287E-004 
 1.306099989688131E-004  1.322528705115648E-004  1.339164068344042E-004  1.356008678682667E-004 
 1.373065168136157E-004  1.390336201815689E-004  1.407824478355419E-004  1.425532730334131E-004 
 1.443463724702227E-004  1.461620263214058E-004  1.480005182865704E-004  1.498621356338270E-004 
 1.517471692446729E-004  1.536559136594455E-004  1.555886671233428E-004  1.575457316330255E-004 
 1.595274129838055E-004  1.615340208174249E-004  1.635658686704408E-004  1.656232740232137E-004 
 1.677065583495158E-004  1.698160471667619E-004  1.719520700868710E-004  1.741149608677705E-004 
 1.763050574655453E-004  1.785227020872442E-004  1.807682412443520E-004  1.830420258069296E-004 
 1.853444110584416E-004  1.876757567512677E-004  1.900364271629153E-004  1.924267911529395E-004 
 1.948472222205764E-004  1.972980985631052E-004  1.997798031349405E-004  2.022927237074708E-004 
 2.048372529296482E-004  2.074137883893404E-004  2.100227326754551E-004  2.126644934408450E-004 
 2.153394834660042E-004  2.180481207235666E-004  2.207908284436143E-004  2.235680351798088E-004 
 2.263801748763529E-004  2.292276869357954E-004  2.321110162876891E-004  2.350306134581111E-004 
 2.379869346400596E-004  2.409804417647337E-004  2.440116025737120E-004  2.470808906920380E-004 
 2.501887857022246E-004  2.533357732191902E-004  2.565223449661369E-004  2.597489988513834E-004 
 2.630162390461638E-004  2.663245760634058E-004  2.696745268374994E-004  2.730666148050684E-004 
 2.765013699867590E-004  2.799793290700565E-004  2.835010354931434E-004  2.870670395298137E-004 
 2.906778983754528E-004  2.943341762341019E-004  2.980364444066151E-004  3.017852813799266E-004 
 3.055812729174408E-004  3.094250121505583E-004  3.133170996713541E-004  3.172581436264224E-004 
 3.212487598118989E-004  3.252895717696819E-004  3.293812108848606E-004  3.335243164843711E-004 
 3.377195359368931E-004  3.419675247540007E-004  3.462689466925897E-004  3.506244738585890E-004 
 3.550347868119796E-004  3.595005746731336E-004  3.640225352304897E-004  3.686013750495854E-004 
 3.732378095834578E-004  3.779325632844358E-004  3.826863697173369E-004  3.874999716740876E-004 
 3.923741212897874E-004  3.973095801602300E-004  4.023071194609051E-004  4.073675200674964E-004 
 4.124915726778937E-004  4.176800779357427E-004  4.229338465555459E-004  4.282536994493389E-004 
 4.336404678549599E-004  4.390949934659314E-004  4.446181285629778E-004  4.502107361471948E-004 
 4.558736900748956E-004  4.616078751941529E-004  4.674141874830577E-004  4.732935341897183E-004 
 4.792468339740194E-004  4.852750170511639E-004  4.913790253370225E-004  4.975598125953083E-004 
 5.038183445866056E-004  5.101555992192710E-004  5.165725667022337E-004  5.230702496997190E-004 
 5.296496634879143E-004  5.363118361136103E-004  5.430578085548342E-004  5.498886348835044E-004 
 5.568053824301317E-004  5.638091319505936E-004  5.709009777950015E-004  5.780820280786968E-004 
 5.853534048553963E-004  5.927162442925149E-004  6.001716968486952E-004  6.077209274535669E-004 
 6.153651156897711E-004  6.231054559772719E-004  6.309431577599864E-004  6.388794456947653E-004 
 6.469155598427444E-004  6.550527558631089E-004  6.632923052092921E-004  6.716354953276423E-004 
 6.800836298585911E-004  6.886380288403463E-004  6.973000289151528E-004  7.060709835381451E-004 
 7.149522631888272E-004  7.239452555852148E-004  7.330513659006657E-004  7.422720169834433E-004 
 7.516086495790385E-004  7.610627225552895E-004  7.706357131303346E-004  7.803291171034270E-004 
 7.901444490886585E-004  8.000832427516216E-004  8.101470510490461E-004  8.203374464714544E-004 
 8.306560212888635E-004  8.411043877995818E-004  8.516841785821339E-004  8.623970467503536E-004 
 8.732446662116893E-004  8.842287319287507E-004  8.953509601841533E-004  9.066130888486901E-004 
 9.180168776528776E-004  9.295641084619190E-004  9.412565855541204E-004  9.530961359028161E-004 
 9.650846094618357E-004  9.772238794545627E-004  9.895158426666329E-004  1.001962419742305E-003 
 1.014565555484571E-003  1.027327219159031E-003  1.040249404801596E-003  1.053334131530067E-003 
 1.066583443859614E-003  1.079999412022246E-003  1.093584132290281E-003  1.107339727303900E-003 
 1.121268346402812E-003  1.135372165962087E-003  1.149653389732227E-003  1.164114249183500E-003 
 1.178757003854617E-003  1.193583941705784E-003  1.208597379476210E-003  1.223799663046090E-003 
 1.239193167803160E-003  1.254780299013857E-003  1.270563492199145E-003  1.286545213515071E-003 
 1.302727960138106E-003  1.319114260655333E-003  1.335706675459546E-003  1.352507797149315E-003 
 1.369520250934088E-003  1.386746695044380E-003  1.404189821147131E-003  1.421852354766282E-003 
 1.439737055708646E-003  1.457846718495133E-003  1.476184172797397E-003  1.494752283879981E-003 
 1.513553953048018E-003  1.532592118100567E-003  1.551869753789653E-003  1.571389872285073E-003 
 1.591155523645055E-003  1.611169796292837E-003  1.631435817499239E-003  1.651956753871309E-003 
 1.672735811847103E-003  1.693776238196706E-003  1.715081320529541E-003  1.736654387808068E-003 
 1.758498810867942E-003  1.780618002944708E-003  1.803015420207130E-003  1.825694562297222E-003 
 1.848658972877076E-003  1.871912240182569E-003  1.895457997584027E-003  1.919299924153945E-003 
 1.943441745241859E-003  1.967887233056429E-003  1.992640207254862E-003  2.017704535539737E-003 
 2.043084134263343E-003  2.068782969039613E-003  2.094805055363766E-003  2.121154459239736E-003 
 2.147835297815483E-003  2.174851740026320E-003  2.202208007246306E-003  2.229908373947849E-003 
 2.257957168369607E-003  2.286358773192773E-003  2.315117626225883E-003  2.344238221098234E-003 
 2.373725107962019E-003  2.403582894203307E-003  2.433816245161942E-003  2.464429884860520E-003 
 2.495428596742530E-003  2.526817224419767E-003  2.558600672429172E-003  2.590783906999157E-003 
 2.623371956825602E-003  2.656369913857593E-003  2.689782934093048E-003  2.723616238384363E-003 
 2.757875113254166E-003  2.792564911721356E-003  2.827691054137519E-003  2.863259029033871E-003 
 2.899274393978858E-003  2.935742776446524E-003  2.972669874695824E-003  3.010061458660990E-003 
 3.047923370853086E-003  3.086261527272930E-003  3.125081918335457E-003  3.164390609805752E-003 
 3.204193743746833E-003  3.244497539479354E-003  3.285308294553403E-003  3.326632385732488E-003 
 3.368476269989930E-003  3.410846485517775E-003  3.453749652748402E-003  3.497192475388980E-003 
 3.541181741468933E-003  3.585724324400580E-003  3.630827184053127E-003  3.676497367840155E-003 
 3.722742011820802E-003  3.769568341814775E-003  3.816983674531402E-003  3.864995418712888E-003 
 3.913611076291940E-003  3.962838243563968E-003  4.012684612374012E-003  4.063157971318608E-003 
 4.114266206962782E-003  4.166017305072330E-003  4.218419351861627E-003  4.271480535257093E-003 
 4.325209146176589E-003  4.379613579824881E-003  4.434702337005408E-003  4.490484025448570E-003 
 4.546967361156669E-003  4.604161169765825E-003  4.662074387924996E-003  4.720716064692339E-003 
 4.780095362949167E-003  4.840221560831635E-003  4.901104053180490E-003  4.962752353009028E-003 
 5.025176092989518E-003  5.088385026958342E-003  5.152389031440028E-003  5.217198107190494E-003 
 5.282822380759679E-003  5.349272106073839E-003  5.416557666037759E-003  5.484689574157067E-003 
 5.553678476181025E-003  5.623535151765933E-003  5.694270516159471E-003  5.765895621906247E-003 
 5.838421660574751E-003  5.911859964506082E-003  5.986222008584640E-003  6.061519412031095E-003 
 6.137763940217944E-003  6.214967506507830E-003  6.293142174115058E-003  6.372300157990487E-003 
 6.452453826730143E-003  6.533615704507850E-003  6.615798473032132E-003  6.699014973527770E-003 
 6.783278208742275E-003  6.868601344977575E-003  6.954997714147313E-003  7.042480815859939E-003 
 7.131064319528081E-003  7.220762066504413E-003  7.311588072244386E-003  7.403556528496192E-003 
 7.496681805518230E-003  7.590978454324499E-003  7.686461208958220E-003  7.783144988794062E-003 
 7.881044900869339E-003  7.980176242244490E-003  8.080554502393287E-003  8.182195365623096E-003 
 8.285114713525584E-003  8.389328627458264E-003  8.494853391057206E-003  8.601705492781414E-003 
 8.709901628489175E-003  8.819458704046813E-003  8.930393837970292E-003  9.042724364099983E-003 
 9.156467834309130E-003  9.271642021246368E-003  9.388264921112718E-003  9.506354756473573E-003 
 9.625929979105956E-003  9.747009272881682E-003  9.869611556686740E-003  9.993755987377402E-003 
 1.011946196277356E-002  1.024674912468960E-002  1.037563736200354E-002  1.050614681376470E-002 
 1.063829787234043E-002  1.077211118660250E-002  1.090760766515350E-002  1.104480847959389E-002 
 1.118373506783005E-002  1.132440913742403E-002  1.146685266898544E-002  1.161108791960587E-002 
 1.175713742633668E-002  1.190502400971044E-002  1.205477077730666E-002  1.220640112736247E-002 
 1.235993875242855E-002  1.251540764307118E-002  1.267283209162084E-002  1.283223669596788E-002 
 1.299364636340606E-002  1.315708631452431E-002  1.332258208714750E-002  1.349015954032681E-002 
 1.365984485838023E-002  1.383166455498395E-002  1.400564547731513E-002  1.418181481024685E-002 
 1.436020008059579E-002  1.454082916142336E-002  1.472373027639098E-002  1.490893200416993E-002 
 1.509646328290700E-002  1.528635341474601E-002  1.547863207040640E-002  1.567332929381932E-002 
 1.587047550682203E-002  1.607010151391142E-002  1.627223850705723E-002  1.647691807057589E-002 
 1.668417218606563E-002  1.689403323740366E-002  1.710653401580621E-002  1.732170772495225E-002 
 1.753958798617158E-002  1.776020884369833E-002  1.798360476999034E-002  1.820981067111559E-002 
 1.843886189220634E-002  1.867079422298190E-002  1.890564390334084E-002  1.914344762902350E-002 
 1.938424255734585E-002  1.962806631300533E-002  1.987495699395981E-002  2.012495317738053E-002 
 2.037809392567975E-002  2.063441879261442E-002  2.089396782946647E-002  2.115678159130098E-002 
 2.142290114330295E-002  2.169236806719379E-002  2.196522446772859E-002  2.224151297927508E-002 
 2.252127677247526E-002  2.280455956099106E-002  2.309140560833450E-002  2.338185973478408E-002 
 2.367596732438797E-002  2.397377433205541E-002  2.427532729073728E-002  2.458067331869686E-002 
 2.488986012687226E-002  2.520293602633129E-002  2.551994993582019E-002  2.584095138940733E-002 
 2.616599054422288E-002  2.649511818829609E-002  2.682838574849095E-002  2.716584529854178E-002 
 2.750754956718986E-002  2.785355194642236E-002  2.820390649981498E-002  2.855866797097949E-002 
 2.891789179211750E-002  2.928163409268199E-002  2.964995170814736E-002  3.002290218889042E-002 
 3.040054380918261E-002  3.078293557629533E-002  3.117013723972027E-002  3.156220930050498E-002 
 3.195921302070672E-002  3.236121043296453E-002  3.276826435019182E-002  3.318043837539144E-002 
 3.359779691159329E-002  3.402040517191782E-002  3.444832918976556E-002  3.488163582913482E-002 
 3.532039279506970E-002  3.576466864423862E-002  3.621453279564700E-002  3.667005554148380E-002 
 3.713130805810470E-002  3.759836241715397E-002  3.807129159682533E-002  3.855016949326533E-002 
 3.903507093211964E-002  3.952607168022451E-002  4.002324845744590E-002  4.052667894866662E-002 
 4.103644181592524E-002  4.155261671070697E-002  4.207528428638912E-002  4.260452621084392E-002 
 4.314042517919869E-002  4.368306492675757E-002  4.423253024208522E-002  4.478890698025489E-002 
 4.535228207626407E-002  4.592274355861749E-002  4.650038056308252E-002  4.708528334661636E-002 
 4.767754330146877E-002  4.827725296946284E-002  4.888450605645415E-002  4.949939744697307E-002 
 5.012202321905047E-002  5.075248065922981E-002  5.139086827776897E-002  5.203728582403198E-002 
 5.269183430207567E-002  5.335461598643152E-002  5.402573443808598E-002  5.470529452066267E-002 
 5.539340241680692E-002  5.609016564477755E-002  5.679569307524659E-002  5.751009494831028E-002 
 5.823348289071495E-002  5.896596993329813E-002  5.970767052865058E-002  6.045870056899945E-002 
 6.121917740431628E-002  6.198921986065404E-002  6.276894825871296E-002  6.355848443264173E-002 
 6.435795174907394E-002  6.516747512640411E-002  6.598718105430715E-002  6.681719761350177E-002 
 6.765765449576414E-002  6.850868302419216E-002  6.937041617372459E-002  7.024298859191952E-002 
 7.112653661999226E-002  7.202119831411993E-002  7.292711346701258E-002  7.384442362975570E-002 
 7.477327213392873E-002  7.571380411399997E-002  7.666616653000495E-002  7.763050819050890E-002 
 7.860697977585798E-002  7.959573386172432E-002  8.059692494294519E-002  8.161070945766412E-002 
 8.263724581177423E-002  8.367669440366907E-002  8.472921764930617E-002  8.579498000758377E-002 
 8.687414800603879E-002  8.796689026686674E-002  8.907337753326877E-002  9.019378269613172E-002 
 9.132828082104145E-002  9.247704917563832E-002  9.364026725731503E-002  9.481811682126316E-002 
 9.601078190887373E-002  9.721844887649285E-002  9.844130642454138E-002  9.967954562699931E-002 
 1.009333599612609E-001  1.022029453383671E-001  1.034885001336158E-001  1.047902252175594E-001 
 1.061083239873907E-001  1.074430023987240E-001  1.087944689977767E-001  1.101629349539542E-001 
 1.115486140928465E-001  1.129517229296384E-001  1.143724807029399E-001  1.158111094090442E-001 
 1.172678338366128E-001  1.187428816018017E-001  1.202364831838254E-001  1.217488719609694E-001 
 1.232802842470575E-001  1.248309593283746E-001  1.264011395010574E-001  1.279910701089526E-001 
 1.296009995819518E-001  1.312311794748114E-001  1.328818645064554E-001  1.345533125997790E-001 
 1.362457849219472E-001  1.379595459252035E-001  1.396948633881918E-001  1.414520084577956E-001 
 1.432312556915075E-001  1.450328831003273E-001  1.468571721922031E-001  1.487044080160175E-001 
 1.505748792061256E-001  1.524688780274569E-001  1.543867004211801E-001  1.563286460509462E-001 
 1.582950183497112E-001  1.602861245671467E-001  1.623022758176509E-001  1.643437871289577E-001 
 1.664109774913635E-001  1.685041699075684E-001  1.706236914431455E-001  1.727698732776474E-001 
 1.749430507563517E-001  1.771435634426611E-001  1.793717551711601E-001  1.816279741013389E-001 
 1.839125727719964E-001  1.862259081563222E-001  1.885683417176771E-001  1.909402394660708E-001 
 1.933419720153518E-001  1.957739146411178E-001  1.982364473393513E-001  2.007299548857966E-001 
 2.032548268960816E-001  2.058114578865938E-001  2.084002473361279E-001  2.110215997483014E-001 
 2.136759247147624E-001  2.163636369791875E-001  2.190851565020855E-001  2.218409085264195E-001 
 2.246313236440492E-001  2.274568378630143E-001  2.303178926756604E-001  2.332149351276220E-001 
 2.361484178876773E-001  2.391187993184747E-001  2.421265435481567E-001  2.451721205428787E-001 
 2.482560061802417E-001  2.513786823236516E-001  2.545406368976080E-001  2.577423639639466E-001 
 2.609843637990359E-001  2.642671429719452E-001  2.675912144236000E-001  2.709570975469265E-001 
 2.743653182680113E-001  2.778164091282765E-001  2.813109093676894E-001  2.848493650090230E-001 
 2.884323289431692E-001  2.920603610155330E-001  2.957340281135074E-001  2.994539042550495E-001 
 3.032205706783757E-001  3.070346159327770E-001  3.108966359705845E-001  3.148072342402870E-001 
 3.187670217808194E-001  3.227766173170421E-001  3.268366473564142E-001  3.309477462868900E-001 
 3.351105564760422E-001  3.393257283714309E-001  3.435939206022418E-001  3.479158000821933E-001 
 3.522920421137480E-001  3.567233304936273E-001  3.612103576196548E-001  3.657538245989492E-001 
 3.703544413574686E-001  3.750129267509419E-001  3.797300086771905E-001  3.845064241898610E-001 
 3.893429196135961E-001  3.942402506606446E-001  3.991991825489468E-001  4.042204901217000E-001 
 4.093049579684270E-001  4.144533805475747E-001  4.196665623106442E-001  4.249453178278929E-001 
 4.302904719156110E-001  4.357028597649979E-001  4.411833270726682E-001  4.467327301727873E-001 
 4.523519361708807E-001  4.580418230793187E-001  4.638032799545054E-001  4.696372070358009E-001 
 4.755445158861794E-001  4.815261295346677E-001  4.875829826205693E-001  4.937160215394997E-001 
 4.999262045912697E-001  5.062145021296138E-001  5.125818967138172E-001  5.190293832622389E-001 
 5.255579692077680E-001  5.321686746552426E-001  5.388625325408368E-001  5.456405887934649E-001 
 5.525039024982074E-001  5.594535460617921E-001  5.664906053801669E-001  5.736161800081656E-001 
 5.808313833313217E-001  5.881373427398350E-001  5.955351998047250E-001  6.030261104562114E-001 
 6.106112451643216E-001  6.182917891217871E-001  6.260689424292283E-001  6.339439202826701E-001 
 6.419179531634261E-001  6.499922870303551E-001  6.581681835145520E-001  6.664469201164779E-001 
 6.748297904055675E-001  6.833181042223612E-001  6.919131878831597E-001  7.006163843872734E-001 
 7.094290536268639E-001  7.183525725994271E-001  7.273883356229598E-001  7.365377545538153E-001 
 7.458022590073177E-001  7.551832965811376E-001  7.646823330814795E-001  7.743008527521249E-001 
 7.840403585063388E-001  7.939023721617118E-001  8.038884346779435E-001  8.140001063976159E-001 
 8.242389672900103E-001  8.346066171979697E-001  8.451046760878865E-001  8.557347843028225E-001 
 8.664986028188100E-001  8.773978135043948E-001  8.884341193834178E-001  8.996092449011277E-001 
 9.109249361936240E-001  9.223829613606904E-001  9.339851107420736E-001  9.457331971972163E-001 
 9.576290563885299E-001  9.696745470682175E-001  9.818715513687010E-001  9.942219750967207E-001 
 1.006727748031108E+000  1.019390824224328E+000  1.032213182307803E+000  1.045196825801064E+000 
 1.058343783424829E+000  1.071656109417969E+000  1.085135883858507E+000  1.098785212988626E+000 
 1.112606229543768E+000  1.126601093085894E+000  1.140771990340899E+000  1.155121135540315E+000 
 1.169650770767273E+000  1.184363166306833E+000  1.199260621000737E+000  1.214345462606585E+000 
 1.229620048161571E+000  1.245086764350765E+000  1.260748027880035E+000  1.276606285853676E+000 
 1.292664016156755E+000  1.308923727842304E+000  1.325387961523356E+000  1.342059289769917E+000 
 1.358940317510947E+000  1.376033682441372E+000  1.393342055434240E+000  1.410868140958050E+000 
 1.428614677499314E+000  1.446584437990480E+000  1.464780230243178E+000  1.483204897386970E+000 
 1.501861318313585E+000  1.520752408126745E+000  1.539881118597672E+000  1.559250438626289E+000 
 1.578863394708262E+000  1.598723051407883E+000  1.618832511836911E+000  1.639194918139457E+000 
 1.659813451982927E+000  1.680691335055186E+000  1.701831829567943E+000  1.723238238766472E+000 
 1.744913907445766E+000  1.766862222473150E+000  1.789086613317505E+000  1.811590552585119E+000 
 1.834377556562280E+000  1.857451185764728E+000  1.880815045493962E+000  1.904472786400603E+000 
 1.928428105054802E+000  1.952684744523830E+000  1.977246494956961E+000  2.002117194177665E+000 
 2.027300728283298E+000  2.052801032252304E+000  2.078622090559052E+000  2.104767937796444E+000 
 2.131242659306296E+000  2.158050391817711E+000  2.185195324093440E+000  2.212681697584368E+000 
 2.240513807092285E+000  2.268696001440916E+000  2.297232684155469E+000  2.326128314150683E+000 
 2.355387406427523E+000  2.385014532778694E+000  2.415014322502958E+000  2.445391463128499E+000 
 2.476150701145344E+000  2.507296842747007E+000  2.538834754581488E+000  2.570769364511668E+000 
 2.603105662385323E+000  2.635848700814791E+000  2.669003595966432E+000  2.702575528360077E+000 
 2.736569743678457E+000  2.770991553586881E+000  2.805846336563183E+000  2.841139538738108E+000 
 2.876876674746308E+000  2.913063328587985E+000  2.949705154501425E+000  2.986807877846485E+000 
 3.024377295999159E+000  3.062419279257483E+000  3.100939771758725E+000  3.139944792408216E+000 
 3.179440435819793E+000  3.219432873268083E+000  3.259928353652815E+000  3.300933204475175E+000 
 3.342453832826534E+000  3.384496726389554E+000  3.427068454451878E+000  3.470175668932642E+000 
 3.513825105421797E+000  3.558023584232607E+000  3.602778011467314E+000  3.648095380096217E+000 
 3.693982771050373E+000  3.740447354327966E+000  3.787496390114671E+000  3.835137229918061E+000 
 3.883377317716265E+000  3.932224191121162E+000  3.981685482556087E+000  4.031768920448463E+000 
 4.082482330437364E+000  4.133833636596264E+000  4.185830862671239E+000  4.238482133334638E+000 
 4.291795675454629E+000  4.345779819380644E+000  4.400443000244987E+000  4.455793759280897E+000 
 4.511840745157070E+000  4.568592715329085E+000  4.626058537407752E+000  4.684247190544669E+000 
 4.743167766835294E+000  4.802829472739527E+000  4.863241630520308E+000  4.924413679700208E+000 
 4.986355178536352E+000  5.049075805513967E+000  5.112585360858611E+000  5.176893768067524E+000 
 5.242011075460178E+000  5.307947457748320E+000  5.374713217625845E+000  5.442318787378555E+000 
 5.510774730514276E+000  5.580091743413409E+000  5.650280657000224E+000  5.721352438435291E+000 
 5.793318192829036E+000  5.866189164977008E+000  5.939976741116872E+000  6.014692450707502E+000 
 6.090347968230551E+000  6.166955115014536E+000  6.244525861082009E+000  6.323072327019875E+000 
 6.402606785873215E+000  6.483141665063065E+000  6.564689548328124E+000  6.647263177691073E+000 
 6.730875455449511E+000  6.815539446191924E+000  6.901268378839138E+000  6.988075648711274E+000 
 7.075974819620870E+000  7.164979625992228E+000  7.255103975007399E+000  7.346361948779301E+000 
 7.438767806551977E+000  7.532335986928716E+000  7.627081110128084E+000  7.723017980268312E+000 
 7.820161587680573E+000  7.918527111251138E+000  8.018129920793205E+000  8.118985579448422E+000 
 8.221109846118617E+000  8.324518677928262E+000  8.429228232717682E+000  8.535254871567862E+000 