<UPF version="2.0.1">
  <PP_INFO>
    Generated using "atomic" code by A. Dal Corso  v.6.1 svn rev. 13369
    Author: ADC
    Generation date: 16Nov2017
    Pseudopotential type: PAW
    Element: Rb
    Functional:  SLA  PW   PBX  PBC

    Suggested minimum cutoff for wavefunctions:  35. Ry
    Suggested minimum cutoff for charge density: 259. Ry
    The Pseudo was generated with a Scalar-Relativistic Calculation
    Local Potential by smoothing AE potential with Bessel fncs, cutoff radius:   1.5000
    Pseudopotential contains additional information for GIPAW reconstruction.

    Valence configuration: 
    nl pn  l   occ       Rcut    Rcut US       E pseu
    4S  1  0  2.00      1.300      1.500    -2.344101
    5S  2  0  1.00      1.300      1.500    -0.164002
    4P  2  1  6.00      1.400      1.600    -1.173324
    5P  3  1  0.00      1.400      1.600    -0.055040
    Generation configuration:
    4S  1  0  2.00      1.300      1.500    -2.344099
    5S  2  0  1.00      1.300      1.500    -0.164004
    4P  2  1  6.00      1.400      1.600    -1.173321
    5P  3  1  0.00      1.400      1.600    -0.055032
    4D  3  2  0.00      1.200      1.800     0.050000
    4D  3  2  0.00      1.200      1.800     1.000000

    Pseudization used: troullier-martins
<PP_INPUTFILE>
 &input
   title='Rb',
   zed=37.,
   rel=1,
   config='[Kr] 5s1 5p0 4d-1',
   iswitch=3,
   dft='PBE'
 /
 &inputp
   lpaw=.true.,
   pseudotype=3,
   file_pseudopw='Rb.pbe-spn-kjpaw_psl.1.0.0.UPF',
   author='ADC',
   lloc=-1,
   rcloc=1.5,
   which_augfun='PSQ',
   rmatch_augfun_nc=.true.,
   nlcc=.true.,
   new_core_ps=.true.,
   rcore=1.2,
   tm=.true.
 /
6
4S  1  0  2.00  0.00  1.30  1.50  0.0
5S  2  0  1.00  0.00  1.30  1.50  0.0
4P  2  1  6.00  0.00  1.40  1.60  0.0
5P  3  1  0.00  0.00  1.40  1.60  0.0
4D  3  2  0.00  0.05  1.20  1.80  0.0
4D  3  2  0.00  1.00  1.20  1.80  0.0
</PP_INPUTFILE>
  </PP_INFO>
  <!--                               -->
  <!-- END OF HUMAN READABLE SECTION -->
  <!--                               -->
  <PP_HEADER generated='Generated using "atomic" code by A. Dal Corso  v.6.1 svn rev. 13369'
             author="ADC"
             date="16Nov2017"
             comment=""
             element="Rb"
             pseudo_type="PAW"
             relativistic="scalar"
             is_ultrasoft="T"
             is_paw="T"
             is_coulomb="F"
             has_so="F"
             has_wfc="T"
             has_gipaw="T"
             paw_as_gipaw="T"
             core_correction="T"
             functional=" SLA  PW   PBX  PBC"
             z_valence="9.000000000000000E+000"
             total_psenergy="-2.398533840006763E+002"
             wfc_cutoff="3.459102971848654E+001"
             rho_cutoff="2.587177592852807E+002"
             l_max="2"
             l_max_rho="4"
             l_local="-1"
             mesh_size="1219"
             number_of_wfc="4"
             number_of_proj="6"/>
  <PP_MESH dx="1.250000000000000E-002" mesh="1219" xmin="-7.000000000000000E+000" rmax="1.000000000000000E+002"
zmesh="3.700000000000000E+001">
    <PP_R type="real" size="1219" columns="4">
 2.464545852850044E-005  2.495546023429790E-005  2.526936128152925E-005  2.558721071787173E-005 
 2.590905820794648E-005  2.623495404107862E-005  2.656494913915510E-005  2.689909506458139E-005 
 2.723744402833812E-005  2.758004889813931E-005  2.792696320669289E-005  2.827824116006537E-005 
 2.863393764615162E-005  2.899410824325127E-005  2.935880922875291E-005  2.972809758792752E-005 
 3.010203102283252E-005  3.048066796132790E-005  3.086406756620561E-005  3.125228974443400E-005 
 3.164539515651823E-005  3.204344522597872E-005  3.244650214894867E-005  3.285462890389229E-005 
 3.326788926144543E-005  3.368634779437972E-005  3.411006988769228E-005  3.453912174882228E-005 
 3.497357041799589E-005  3.541348377870162E-005  3.585893056829707E-005  3.630998038874937E-005 
 3.676670371751064E-005  3.722917191853019E-005  3.769745725340537E-005  3.817163289267248E-005 
 3.865177292723985E-005  3.913795237996474E-005  3.963024721737576E-005  4.012873436154289E-005 
 4.063349170209655E-005  4.114459810839815E-005  4.166213344186352E-005  4.218617856844141E-005 
 4.271681537124911E-005  4.325412676336660E-005  4.379819670079207E-005  4.434911019556016E-005 
 4.490695332902524E-005  4.547181326531192E-005  4.604377826493443E-005  4.662293769858763E-005 
 4.720938206111134E-005  4.780320298563029E-005  4.840449325787216E-005  4.901334683066528E-005 
 4.962985883861911E-005  5.025412561298922E-005  5.088624469672912E-005  5.152631485973180E-005 
 5.217443611426241E-005  5.283070973058560E-005  5.349523825278910E-005  5.416812551480646E-005 
 5.484947665664146E-005  5.553939814079619E-005  5.623799776890620E-005  5.694538469858471E-005 
 5.766166946047860E-005  5.838696397553931E-005  5.912138157251041E-005  5.986503700563559E-005 
 6.061804647258928E-005  6.138052763263263E-005  6.215259962499827E-005  6.293438308750577E-005 
 6.372600017541169E-005  6.452757458049659E-005  6.533923155039198E-005  6.616109790815090E-005 
 6.699330207206375E-005  6.783597407572429E-005  6.868924558834752E-005  6.955324993534324E-005 
 7.042812211914860E-005  7.131399884032221E-005  7.221101851890407E-005  7.311932131604396E-005 
 7.403904915590184E-005  7.497034574782402E-005  7.591335660879764E-005  7.686822908618832E-005 
 7.783511238076332E-005  7.881415757000454E-005  7.980551763171477E-005  8.080934746792054E-005 
 8.182580392907608E-005  8.285504583857143E-005  8.389723401754888E-005  8.495253131003190E-005 
 8.602110260836937E-005  8.710311487900072E-005  8.819873718854455E-005  8.930814073021572E-005 
 9.043149885057492E-005  9.156898707661383E-005  9.272078314318201E-005  9.388706702075821E-005 
 9.506802094357103E-005  9.626382943807378E-005  9.747467935177650E-005  9.870075988244172E-005 
 9.994226260764681E-005  1.011993815147184E-004  1.024723130310435E-004  1.037612560547612E-004 
 1.050664119858414E-004  1.063879847575536E-004  1.077261808683322E-004  1.090812094140421E-004 
 1.104532821206504E-004  1.118426133773091E-004  1.132494202698535E-004  1.146739226147227E-004 
 1.161163429933065E-004  1.175769067867235E-004  1.190558422110380E-004  1.205533803529190E-004 
 1.220697552057477E-004  1.236052037061804E-004  1.251599657711688E-004  1.267342843354489E-004 
 1.283284053894994E-004  1.299425780179780E-004  1.315770544386423E-004  1.332320900417581E-004 
 1.349079434300059E-004  1.366048764588869E-004  1.383231542776392E-004  1.400630453706682E-004 
 1.418248215994969E-004  1.436087582452453E-004  1.454151340516438E-004  1.472442312685872E-004 
 1.490963356962371E-004  1.509717367296784E-004  1.528707274041381E-004  1.547936044407726E-004 
 1.567406682930309E-004  1.587122231936014E-004  1.607085772019485E-004  1.627300422524475E-004 
 1.647769342031253E-004  1.668495728850135E-004  1.689482821521233E-004  1.710733899320472E-004 
 1.732252282771995E-004  1.754041334166997E-004  1.776104458089085E-004  1.798445101946263E-004 
 1.821066756509586E-004  1.843972956458602E-004  1.867167280933657E-004  1.890653354095138E-004 
 1.914434845689764E-004  1.938515471623973E-004  1.962898994544565E-004  1.987589224426604E-004 
 2.012590019168740E-004  2.037905285196021E-004  2.063538978070260E-004  2.089495103108127E-004 
 2.115777716006966E-004  2.142390923478512E-004  2.169338883890584E-004  2.196625807916814E-004 
 2.224255959194603E-004  2.252233654991300E-004  2.280563266878792E-004  2.309249221416580E-004 
 2.338296000843415E-004  2.367708143777683E-004  2.397490245926556E-004  2.427646960804085E-004 
 2.458183000458331E-004  2.489103136207605E-004  2.520412199386034E-004  2.552115082098435E-004 
 2.584216737984731E-004  2.616722182993971E-004  2.649636496168062E-004  2.682964820435408E-004 
 2.716712363414483E-004  2.750884398227532E-004  2.785486264324527E-004  2.820523368317434E-004 
 2.856001184825042E-004  2.891925257328359E-004  2.928301199036798E-004  2.965134693765267E-004 
 3.002431496822245E-004  3.040197435909099E-004  3.078438412030643E-004  3.117160400417195E-004 
 3.156369451458230E-004  3.196071691647735E-004  3.236273324541519E-004  3.276980631726513E-004 
 3.318199973802280E-004  3.359937791374890E-004  3.402200606063243E-004  3.444995021518127E-004 
 3.488327724454020E-004  3.532205485693914E-004  3.576635161227281E-004  3.621623693281305E-004 
 3.667178111405658E-004  3.713305533570849E-004  3.760013167280437E-004  3.807308310697226E-004 
 3.855198353783583E-004  3.903690779456183E-004  3.952793164755195E-004  4.002513182028216E-004 
 4.052858600129113E-004  4.103837285631877E-004  4.155457204059847E-004  4.207726421130294E-004 
 4.260653104014726E-004  4.314245522615033E-004  4.368512050855642E-004  4.423461167992008E-004 
 4.479101459935474E-004  4.535441620594854E-004  4.592490453234887E-004  4.650256871851725E-004 
 4.708749902565815E-004  4.767978685032206E-004  4.827952473868658E-004  4.888680640101706E-004 
 4.950172672630860E-004  5.012438179711320E-004  5.075486890455245E-004  5.139328656351960E-004 
 5.203973452807279E-004  5.269431380702161E-004  5.335712667971021E-004  5.402827671199846E-004 
 5.470786877244430E-004  5.539600904868988E-004  5.609280506405336E-004  5.679836569432981E-004 
 5.751280118480317E-004  5.823622316747236E-004  5.896874467849398E-004  5.971048017584444E-004 
 6.046154555720433E-004  6.122205817806749E-004  6.199213687007819E-004  6.277190195959886E-004 
 6.356147528651110E-004  6.436098022325373E-004  6.517054169409966E-004  6.599028619467578E-004 
 6.682034181172811E-004  6.766083824313553E-004  6.851190681817553E-004  6.937368051804442E-004 
 7.024629399663608E-004  7.112988360158193E-004  7.202458739555537E-004  7.293054517784456E-004 
 7.384789850619613E-004  7.477679071893399E-004  7.571736695735628E-004  7.666977418841379E-004 
 7.763416122767414E-004  7.861067876257426E-004  7.959947937596565E-004  8.060071756995597E-004 
 8.161454979005000E-004  8.264113444959486E-004  8.368063195453215E-004  8.473320472846186E-004 
 8.579901723802149E-004  8.687823601858397E-004  8.797102970027954E-004  8.907756903434424E-004 
 9.019802691980021E-004  9.133257843047177E-004  9.248140084234062E-004  9.364467366124601E-004 
 9.482257865093254E-004  9.601529986145125E-004  9.722302365791802E-004  9.844593874963306E-004 
 9.968423621956762E-004  1.009381095542206E-003  1.022077546738516E-003  1.034933699630937E-003 
 1.047951563019514E-003  1.061133170971887E-003  1.074480583141117E-003  1.087995885087509E-003 
 1.101681188604493E-003  1.115538632048582E-003  1.129570380673511E-003  1.143778626968549E-003 
 1.158165591001086E-003  1.172733520763524E-003  1.187484692524525E-003  1.202421411184690E-003 
 1.217546010636698E-003  1.232860854129984E-003  1.248368334640003E-003  1.264070875242135E-003 
 1.279970929490295E-003  1.296070981800310E-003  1.312373547838107E-003  1.328881174912800E-003 
 1.345596442374701E-003  1.362521962018361E-003  1.379660378490660E-003  1.397014369704038E-003 
 1.414586647254929E-003  1.432379956847454E-003  1.450397078722436E-003  1.468640828091824E-003 
 1.487114055578575E-003  1.505819647662065E-003  1.524760527129117E-003  1.543939653530684E-003 
 1.563360023644283E-003  1.583024671942258E-003  1.602936671065911E-003  1.623099132305620E-003 
 1.643515206086972E-003  1.664188082463033E-003  1.685120991612796E-003  1.706317204345902E-003 
 1.727780032613718E-003  1.749512830026826E-003  1.771518992379037E-003  1.793801958177990E-003 
 1.816365209182426E-003  1.839212270946221E-003  1.862346713369259E-003  1.885772151255234E-003 
 1.909492244876476E-003  1.933510700545871E-003  1.957831271195985E-003  1.982457756965463E-003 
 2.007394005792808E-003  2.032643914017633E-003  2.058211426989468E-003  2.084100539684235E-003 
 2.110315297328464E-003  2.136859796031370E-003  2.163738183424880E-003  2.190954659311709E-003 
 2.218513476321589E-003  2.246418940575745E-003  2.274675412359740E-003  2.303287306804781E-003 
 2.332259094577581E-003  2.361595302578930E-003  2.391300514651008E-003  2.421379372293641E-003 
 2.451836575389528E-003  2.482676882938619E-003  2.513905113801716E-003  2.545526147453424E-003 
 2.577544924744585E-003  2.609966448674293E-003  2.642795785171623E-003  2.676038063887197E-003 
 2.709698478994696E-003  2.743782290002462E-003  2.778294822575309E-003  2.813241469366666E-003 
 2.848627690861198E-003  2.884459016228006E-003  2.920741044184576E-003  2.957479443871594E-003 
 2.994679955738756E-003  3.032348392441723E-003  3.070490639750372E-003  3.109112657468444E-003 
 3.148220480364784E-003  3.187820219116286E-003  3.227918061262693E-003  3.268520272173424E-003 
 3.309633196026539E-003  3.351263256800035E-003  3.393416959275603E-003  3.436100890055016E-003 
 3.479321718589304E-003  3.523086198220857E-003  3.567401167238656E-003  3.612273549946770E-003 
 3.657710357746289E-003  3.703718690230878E-003  3.750305736296089E-003  3.797478775262654E-003 
 3.845245178013883E-003  3.893612408147386E-003  3.942588023141282E-003  3.992179675535050E-003 
 4.042395114125274E-003  4.093242185176396E-003  4.144728833646715E-003  4.196863104429811E-003 
 4.249653143611558E-003  4.303107199742982E-003  4.357233625129105E-003  4.412040877134011E-003 
 4.467537519502339E-003  4.523732223697366E-003  4.580633770255952E-003  4.638251050160510E-003 
 4.696593066228247E-003  4.755668934517879E-003  4.815487885754014E-003  4.876059266769483E-003 
 4.937392541965804E-003  4.999497294792007E-003  5.062383229242082E-003  5.126060171371224E-003 
 5.190538070831195E-003  5.255827002424964E-003  5.321937167680921E-003  5.388878896446896E-003 
 5.456662648504202E-003  5.525299015202003E-003  5.594798721112237E-003  5.665172625705346E-003 
 5.736431725047111E-003  5.808587153516774E-003  5.881650185546838E-003  5.955632237384703E-003 
 6.030544868876482E-003  6.106399785273267E-003  6.183208839060068E-003  6.260984031807808E-003 
 6.339737516048590E-003  6.419481597174545E-003  6.500228735360600E-003  6.581991547511373E-003 
 6.664782809232611E-003  6.748615456827397E-003  6.833502589317472E-003  6.919457470490002E-003 
 7.006493530970044E-003  7.094624370319119E-003  7.183863759160183E-003  7.274225641329293E-003 
 7.365724136054396E-003  7.458373540161438E-003  7.552188330308310E-003  7.647183165246839E-003 
 7.743372888113245E-003  7.840772528747443E-003  7.939397306041431E-003  8.039262630317318E-003 
 8.140384105735197E-003  8.242777532731333E-003  8.346458910487025E-003  8.451444439428484E-003 
 8.557750523758199E-003  8.665393774018131E-003  8.774391009685129E-003  8.884759261799031E-003 
 8.996515775623775E-003  9.109678013342013E-003  9.224263656783620E-003  9.340290610188502E-003 
 9.457777003004202E-003  9.576741192718617E-003  9.697201767728427E-003  9.819177550243554E-003 
 9.942687599228171E-003  1.006775121337873E-002  1.019438793413938E-002  1.032261754875538E-002 
 1.045246009336491E-002  1.058393585612970E-002  1.071706538040522E-002  1.085186946795045E-002 
 1.098836918217836E-002  1.112658585144699E-002  1.126654107239212E-002  1.140825671330177E-002 
 1.155175491753316E-002  1.169705810697264E-002  1.184418898553918E-002  1.199317054273189E-002 
 1.214402605722221E-002  1.229677910049118E-002  1.245145354051260E-002  1.260807354548240E-002 
 1.276666358759499E-002  1.292724844686714E-002  1.308985321500980E-002  1.325450329934882E-002 
 1.342122442679486E-002  1.359004264786327E-002  1.376098434074458E-002  1.393407621542606E-002 
 1.410934531786531E-002  1.428681903421615E-002  1.446652509510785E-002  1.464849157997803E-002 
 1.483274692146018E-002  1.501931990982626E-002  1.520823969748530E-002  1.539953580353846E-002 
 1.559323811839153E-002  1.578937690842530E-002  1.598798282072474E-002  1.618908688786772E-002 
 1.639272053277388E-002  1.659891557361454E-002  1.680770422878433E-002  1.701911912193542E-002 
 1.723319328707497E-002  1.744996017372681E-002  1.766945365215804E-002  1.789170801867120E-002 
 1.811675800096323E-002  1.834463876355175E-002  1.857538591326952E-002  1.880903550482816E-002 
 1.904562404645172E-002  1.928518850558116E-002  1.952776631465061E-002  1.977339537693627E-002 
 2.002211407247886E-002  2.027396126408060E-002  2.052897630337754E-002  2.078719903698841E-002 
 2.104866981274067E-002  2.131342948597505E-002  2.158151942592912E-002  2.185298152220143E-002 
 2.212785819129682E-002  2.240619238325407E-002  2.268802758835696E-002  2.297340784392969E-002 
 2.326237774121779E-002  2.355498243235564E-002  2.385126763742150E-002  2.415127965158151E-002 
 2.445506535232324E-002  2.476267220678049E-002  2.507414827915010E-002  2.538954223820205E-002 
 2.570890336488417E-002  2.603228156002222E-002  2.635972735211711E-002  2.669129190524006E-002 
 2.702702702702703E-002  2.736698517677391E-002  2.771121947363323E-002  2.805978370491420E-002 
 2.841273233448716E-002  2.877012051129350E-002  2.913200407796302E-002  2.949843957953924E-002 
 2.986948427231481E-002  3.024519613277787E-002  3.062563386667098E-002  3.101085691816412E-002 
 3.140092547914280E-002  3.179590049861327E-002  3.219584369222592E-002  3.260081755191840E-002 
 3.301088535568027E-002  3.342611117744014E-002  3.384655989707743E-002  3.427229721056001E-002 
 3.470338964020923E-002  3.513990454509436E-002  3.558191013155735E-002  3.602947546387036E-002 
 3.648267047502714E-002  3.694156597767017E-002  3.740623367515545E-002  3.787674617275605E-002 
 3.835317698900698E-002  3.883560056719258E-002  3.932409228697841E-002  3.981872847618961E-002 
 4.031958642273705E-002  4.082674438669388E-002  4.134028161252378E-002  4.186027834146306E-002 
 4.238681582405863E-002  4.291997633286335E-002  4.345984317529145E-002  4.400650070663543E-002 
 4.456003434324671E-002  4.512053057588224E-002  4.568807698321870E-002  4.626276224553690E-002 
 4.684467615857828E-002  4.743390964757564E-002  4.803055478146050E-002  4.863470478724890E-002 
 4.924645406460838E-002  4.986589820060814E-002  5.049313398465466E-002  5.112825942361541E-002 
 5.177137375713235E-002  5.242257747312851E-002  5.308197232350942E-002  5.374966134006194E-002 
 5.442574885055344E-002  5.511034049503286E-002  5.580354324233750E-002  5.650546540680695E-002 
 5.721621666520742E-002  5.793590807386918E-002  5.866465208603900E-002  5.940256256945144E-002 
 6.014975482412079E-002  6.090634560035699E-002  6.167245311700822E-002  6.244819707993256E-002 
 6.323369870070249E-002  6.402908071554436E-002  6.483446740451616E-002  6.564998461092672E-002 
 6.647575976099866E-002  6.731192188377925E-002  6.815860163130134E-002  6.901593129899802E-002 
 6.988404484637424E-002  7.076307791793789E-002  7.165316786439481E-002  7.255445376411006E-002 
 7.346707644483906E-002  7.439117850573262E-002  7.532690433961761E-002  7.627440015555945E-002 
 7.723381400170717E-002  7.820529578842597E-002  7.918899731172176E-002  8.018507227695860E-002 
 8.119367632287654E-002  8.221496704590989E-002  8.324910402481164E-002  8.429624884558906E-002 
 8.535656512675051E-002  8.643021854487229E-002  8.751737686048550E-002  8.861820994428847E-002 
 8.973288980369057E-002  9.086159060968731E-002  9.200448872407616E-002  9.316176272701289E-002 
 9.433359344491463E-002  9.552016397871550E-002  9.672165973247515E-002  9.793826844234975E-002 
 9.917018020592558E-002  1.004175875119217E-001  1.016806852702680E-001  1.029596708425584E-001 
 1.042547440728912E-001  1.055661073190934E-001  1.068939654843399E-001  1.082385260491711E-001 
 1.095999991039102E-001  1.109785973814922E-001  1.123745362907030E-001  1.137880339498368E-001 
 1.152193112207790E-001  1.166685917435147E-001  1.181361019710745E-001  1.196220712049172E-001 
 1.211267316307585E-001  1.226503183548516E-001  1.241930694407214E-001  1.257552259463640E-001 
 1.273370319619120E-001  1.289387346477731E-001  1.305605842732509E-001  1.322028342556488E-001 
 1.338657411998679E-001  1.355495649385017E-001  1.372545685724346E-001  1.389810185119538E-001 
 1.407291845183743E-001  1.424993397461916E-001  1.442917607857616E-001  1.461067277065180E-001 
 1.479445241007353E-001  1.498054371278385E-001  1.516897575592744E-001  1.535977798239445E-001 
 1.555298020542089E-001  1.574861261324724E-001  1.594670577383518E-001  1.614729063964411E-001 
 1.635039855246743E-001  1.655606124832969E-001  1.676431086244560E-001  1.697517993424099E-001 
 1.718870141243738E-001  1.740490866020017E-001  1.762383546035166E-001  1.784551602064982E-001 
 1.806998497913317E-001  1.829727740953317E-001  1.852742882675455E-001  1.876047519242442E-001 
 1.899645292051163E-001  1.923539888301621E-001  1.947735041573099E-001  1.972234532407524E-001 
 1.997042188900176E-001  2.022161887297861E-001  2.047597552604554E-001  2.073353159194710E-001 
 2.099432731434264E-001  2.125840344309430E-001  2.152580124063454E-001  2.179656248841318E-001 
 2.207072949342607E-001  2.234834509482561E-001  2.262945267061423E-001  2.291409614442265E-001 
 2.320231999237269E-001  2.349416925002703E-001  2.378968951942598E-001  2.408892697621280E-001 
 2.439192837684900E-001  2.469874106591980E-001  2.500941298353213E-001  2.532399267280523E-001 
 2.564252928745548E-001  2.596507259947706E-001  2.629167300691861E-001  2.662238154175833E-001 
 2.695724987787764E-001  2.729633033913528E-001  2.763967590754327E-001  2.798734023154512E-001 
 2.833937763439884E-001  2.869584312266489E-001  2.905679239480096E-001  2.942228184986527E-001 
 2.979236859632866E-001  3.016711046099828E-001  3.054656599805294E-001  3.093079449819222E-001 
 3.131985599790109E-001  3.171381128883031E-001  3.211272192729566E-001  3.251665024389605E-001 
 3.292565935325263E-001  3.333981316387099E-001  3.375917638812652E-001  3.418381455237627E-001 
 3.461379400719741E-001  3.504918193775441E-001  3.549004637429737E-001  3.593645620279132E-001 
 3.638848117568029E-001  3.684619192278585E-001  3.730965996234350E-001  3.777895771217742E-001 
 3.825415850101569E-001  3.873533657994851E-001  3.922256713402953E-001  3.971592629402417E-001 
 4.021549114830500E-001  4.072133975489673E-001  4.123355115367346E-001  4.175220537870818E-001 
 4.227738347077884E-001  4.280916749003090E-001  4.334764052879913E-001  4.389288672459151E-001 
 4.444499127323530E-001  4.500404044218958E-001  4.557012158402445E-001  4.614332315006989E-001 
 4.672373470423693E-001  4.731144693701159E-001  4.790655167962606E-001  4.850914191840718E-001 
 4.911931180930559E-001  4.973715669260830E-001  5.036277310783518E-001  5.099625880882401E-001 
 5.163771277900451E-001  5.228723524686437E-001  5.294492770161087E-001  5.361089290902793E-001 
 5.428523492753424E-001  5.496805912444224E-001  5.565947219242172E-001  5.635958216617144E-001 
 5.706849843929899E-001  5.778633178141444E-001  5.851319435543804E-001  5.924919973512560E-001 
 5.999446292281531E-001  6.074910036739628E-001  6.151322998250468E-001  6.228697116494757E-001 
 6.307044481335871E-001  6.386377334708986E-001  6.466708072533824E-001  6.548049246651616E-001 
 6.630413566786317E-001  6.713813902530500E-001  6.798263285356324E-001  6.883774910651648E-001 
 6.970362139781908E-001  7.058038502177836E-001  7.146817697449406E-001  7.236713597526528E-001 
 7.327740248826462E-001  7.419911874448676E-001  7.513242876397214E-001  7.607747837830988E-001 
 7.703441525342518E-001  7.800338891265145E-001  7.898455076009444E-001  7.997805410428913E-001 
 8.098405418215412E-001  8.200270818324854E-001  8.303417527433226E-001  8.407861662423692E-001 
 8.513619542904856E-001  8.620707693760675E-001  8.729142847732628E-001  8.838941948034101E-001 
 8.950122150997922E-001  9.062700828757018E-001  9.176695571958798E-001  9.292124192513845E-001 
 9.409004726378932E-001  9.527355436375281E-001  9.647194815042137E-001  9.768541587526198E-001 
 9.891414714507578E-001  1.001583339516232E+000  1.014181707016243E+000  1.026938542471346E+000 
 1.039855839163031E+000  1.052935615445190E+000  1.066179915059474E+000  1.079590807454647E+000 
 1.093170388109931E+000  1.106920778862427E+000  1.120844128238671E+000  1.134942611790325E+000 
 1.149218432434129E+000  1.163673820796107E+000  1.178311035560095E+000  1.193132363820683E+000 
 1.208140121440564E+000  1.223336653412399E+000  1.238724334225230E+000  1.254305568235486E+000 
 1.270082790042685E+000  1.286058464869830E+000  1.302235088948617E+000  1.318615189909472E+000 
 1.335201327176492E+000  1.351996092367373E+000  1.369002109698342E+000  1.386222036394208E+000 
 1.403658563103554E+000  1.421314414319147E+000  1.439192348803668E+000  1.457295160020745E+000 
 1.475625676571466E+000  1.494186762636337E+000  1.512981318422815E+000  1.532012280618483E+000 
 1.551282622849898E+000  1.570795356147243E+000  1.590553529414796E+000  1.610560229907324E+000 
 1.630818583712488E+000  1.651331756239280E+000  1.672102952712645E+000  1.693135418674295E+000 
 1.714432440489820E+000  1.735997345862215E+000  1.757833504351811E+000  1.779944327902803E+000 
 1.802333271376357E+000  1.825003833090437E+000  1.847959555366439E+000  1.871204025082666E+000 
 1.894740874234807E+000  1.918573780503431E+000  1.942706467828624E+000  1.967142706991885E+000 
 1.991886316205293E+000  2.016941161708133E+000  2.042311158370991E+000  2.068000270307456E+000 
 2.094012511493540E+000  2.120351946394842E+000  2.147022690601658E+000  2.174028911472035E+000 
 2.201374828782923E+000  2.229064715389544E+000  2.257102897893007E+000  2.285493757316378E+000 
 2.314241729789207E+000  2.343351307240673E+000  2.372827038101484E+000  2.402673528014549E+000 
 2.432895440554644E+000  2.463497497957093E+000  2.494484481855618E+000  2.525861234029507E+000 
 2.557632657160112E+000  2.589803715596942E+000  2.622379436133336E+000  2.655364908791894E+000 
 2.688765287619836E+000  2.722585791494301E+000  2.756831704937829E+000  2.791508378944077E+000 
 2.826621231813898E+000  2.862175750002001E+000  2.898177488974177E+000  2.934632074075394E+000 
 2.971545201408746E+000  3.008922638725469E+000  3.046770226326198E+000  3.085093877973487E+000 
 3.123899581815883E+000  3.163193401323565E+000  3.202981476235766E+000  3.243270023520150E+000 
 3.284065338344188E+000  3.325373795058825E+000  3.367201848194472E+000  3.409556033469518E+000 
 3.452442968811595E+000  3.495869355391594E+000  3.539841978670773E+000  3.584367709460991E+000 
 3.629453504998257E+000  3.675106410029868E+000  3.721333557915101E+000  3.768142171739869E+000 
 3.815539565445325E+000  3.863533144970649E+000  3.912130409410301E+000  3.961338952185708E+000 
 4.011166462231800E+000  4.061620725198405E+000  4.112709624666746E+000  4.164441143381322E+000 
 4.216823364497165E+000  4.269864472842904E+000  4.323572756199640E+000  4.377956606595902E+000 
 4.433024521618973E+000  4.488785105742598E+000  4.545247071671499E+000  4.602419241702734E+000 
 4.660310549104171E+000  4.718930039510391E+000  4.778286872336012E+000  4.838390322206937E+000 
 4.899249780409496E+000  4.960874756357837E+000  5.023274879079847E+000  5.086459898721635E+000 
 5.150439688071081E+000  5.215224244100448E+000  5.280823689528404E+000  5.347248274401776E+000 
 5.414508377697077E+000  5.482614508942294E+000  5.551577309859010E+000  5.621407556025153E+000 
 5.692116158558777E+000  5.763714165822867E+000  5.836212765151733E+000  5.909623284599032E+000 
 5.983957194707761E+000  6.059226110302629E+000  6.135441792304814E+000  6.212616149569699E+000 
 6.290761240747630E+000  6.369889276168070E+000  6.450012619747564E+000  6.531143790921535E+000 
 6.613295466600551E+000  6.696480483151090E+000  6.780711838401206E+000  6.866002693671548E+000 
 6.952366375831756E+000  7.039816379382886E+000  7.128366368565926E+000  7.218030179496814E+000 
 7.308821822328460E+000  7.400755483439744E+000  7.493845527652270E+000  7.588106500474852E+000 
 7.683553130376241E+000  7.780200331086577E+000  7.878063203927573E+000  7.977157040172225E+000 
 8.077497323434070E+000  8.179099732086483E+000  8.281980141712557E+000  8.386154627585579E+000 
 8.491639467180924E+000  8.598451142719407E+000  8.706606343742608E+000  8.816121969720765E+000 
 8.927015132693214E+000  9.039303159942298E+000  9.153003596700746E+000  9.268134208893091E+000 
 9.384712985911760E+000  9.502758143427805E+000  9.622288126237272E+000  9.743321611143182E+000 
 9.865877509873753E+000  9.989974972037547E+000  1.011563338811546E+001  1.024287239249069E+001 
 1.037171186651655E+001  1.050217194162294E+001  1.063427300246207E+001  1.076803569009340E+001 
 1.090348090520906E+001  1.104062981139947E+001  1.117950383846024E+001  1.132012468574066E+001 
 1.146251432553418E+001  1.160669500651173E+001  1.175268925719807E+001  1.190051988949186E+001 
 1.205021000223021E+001  1.220178298479772E+001  1.235526252078132E+001  1.251067259167080E+001 
 1.266803748060586E+001  1.282738177617062E+001  1.298873037623539E+001  1.315210849184722E+001 
 1.331754165116910E+001  1.348505570346870E+001  1.365467682315755E+001  1.382643151388065E+001 
 1.400034661265789E+001  1.417644929407731E+001  1.435476707454111E+001  1.453532781656534E+001 
 1.471815973313323E+001  1.490329139210375E+001  1.509075172067530E+001  1.528057000990555E+001 
 1.547277591928843E+001  1.566739948138828E+001  1.586447110653267E+001  1.606402158756401E+001 
 1.626608210465087E+001  1.647068423016022E+001  1.667785993359037E+001  1.688764158656651E+001 
 1.710006196789876E+001  1.731515426870381E+001  1.753295209759132E+001  1.775348948591513E+001 
 1.797680089309086E+001  1.820292121198025E+001  1.843188577434312E+001  1.866373035635823E+001 
 1.889849118421313E+001  1.913620493976485E+001  1.937690876627135E+001  1.962064027419517E+001 
 1.986743754708037E+001  2.011733914750289E+001  2.037038412309625E+001  2.062661201265275E+001 
 2.088606285230135E+001  2.114877718176369E+001  2.141479605068816E+001  2.168416102506430E+001 
 2.195691419371741E+001  2.223309817488493E+001  2.251275612287591E+001  2.279593173481361E+001 
 2.308266925746356E+001  2.337301349414707E+001  2.366700981174178E+001  2.396470414777052E+001 
 2.426614301757887E+001  2.457137352160358E+001  2.488044335273192E+001  2.519340080375374E+001 