<UPF version="2.0.1">
  <PP_INFO>
    Generated using "atomic" code by A. Dal Corso  v.6.1 svn rev. 13369
    Author: ADC
    Generation date: 16Nov2017
    Pseudopotential type: PAW
    Element: Sc
    Functional:  SLA  PW   PBX  PBC

    Suggested minimum cutoff for wavefunctions:  50. Ry
    Suggested minimum cutoff for charge density: 402. Ry
    The Pseudo was generated with a Scalar-Relativistic Calculation
    Local Potential by smoothing AE potential with Bessel fncs, cutoff radius:   1.2000
    Pseudopotential contains additional information for GIPAW reconstruction.

    Valence configuration: 
    nl pn  l   occ       Rcut    Rcut US       E pseu
    3S  1  0  2.00      0.900      1.300    -4.045269
    4S  2  0  2.00      0.900      1.300    -0.307432
    3P  2  1  6.00      0.900      1.450    -2.471341
    3D  3  2  1.00      1.000      1.500    -0.237632
    Generation configuration:
    3S  1  0  2.00      0.900      1.300    -4.045286
    4S  2  0  2.00      0.900      1.300    -0.307438
    3P  2  1  6.00      0.900      1.450    -2.471358
    4P  3  1  0.00      0.900      1.450     7.000000
    3D  3  2  1.00      1.000      1.500    -0.237646
    3D  3  2  0.00      1.000      1.500     6.000000

    Pseudization used: troullier-martins
<PP_INPUTFILE>
 &input
   title='Sc',
   zed=21.,
   rel=1,
   config='[Ar] 4s2 4p0 3d1',
   iswitch=3,
   dft='PBE'
 /
 &inputp
   lpaw=.true.,
   pseudotype=3,
   file_pseudopw='Sc.pbe-spn-kjpaw_psl.1.0.0.UPF',
   author='ADC',
   lloc=-1,
   rcloc=1.2,
   which_augfun='PSQ',
   rmatch_augfun_nc=.true.,
   nlcc=.true.,
   new_core_ps=.true.,
   rcore=0.8,
   tm=.true.
 /
6
3S  1  0  2.00  0.00  0.90  1.30  0.0
4S  2  0  2.00  0.00  0.90  1.30  0.0
3P  2  1  6.00  0.00  0.90  1.45  0.0
4P  3  1  0.00  7.00  0.90  1.45  0.0
3D  3  2  1.00  0.00  1.00  1.50  0.0
3D  3  2  0.00  6.00  1.00  1.50  0.0
</PP_INPUTFILE>
  </PP_INFO>
  <!--                               -->
  <!-- END OF HUMAN READABLE SECTION -->
  <!--                               -->
  <PP_HEADER generated='Generated using "atomic" code by A. Dal Corso  v.6.1 svn rev. 13369'
             author="ADC"
             date="16Nov2017"
             comment=""
             element="Sc"
             pseudo_type="PAW"
             relativistic="scalar"
             is_ultrasoft="T"
             is_paw="T"
             is_coulomb="F"
             has_so="F"
             has_wfc="T"
             has_gipaw="T"
             paw_as_gipaw="T"
             core_correction="T"
             functional=" SLA  PW   PBX  PBC"
             z_valence="1.100000000000000E+001"
             total_psenergy="-1.566259988041924E+002"
             wfc_cutoff="5.013887341734917E+001"
             rho_cutoff="4.019181156560607E+002"
             l_max="2"
             l_max_rho="4"
             l_local="-1"
             mesh_size="1173"
             number_of_wfc="4"
             number_of_proj="6"/>
  <PP_MESH dx="1.250000000000000E-002" mesh="1173" xmin="-7.000000000000000E+000" rmax="1.000000000000000E+002"
zmesh="2.100000000000000E+001">
    <PP_R type="real" size="1173" columns="4">
 4.342295074069125E-005  4.396914422233439E-005  4.452220797221820E-005  4.508222840767876E-005 
 4.564929303304857E-005  4.622349045332899E-005  4.680491038803518E-005  4.739364368521482E-005 
 4.798978233564335E-005  4.859341948719784E-005  4.920464945941128E-005  4.982356775821041E-005 
 5.045027109083858E-005  5.108485738096652E-005  5.172742578399323E-005  5.237807670253897E-005 
 5.303691180213349E-005  5.370403402710154E-005  5.437954761664797E-005  5.506355812114561E-005 
 5.575617241862736E-005  5.645749873148632E-005  5.716764664338575E-005  5.788672711638165E-005 
 5.861485250826100E-005  5.935213659009759E-005  6.009869456402926E-005  6.085464308125831E-005 
 6.162010026027848E-005  6.239518570533143E-005  6.318002052509484E-005  6.397472735160604E-005 
 6.477943035942352E-005  6.559425528502939E-005  6.641932944647614E-005  6.725478176328008E-005 
 6.810074277656545E-005  6.895734466946170E-005  6.982472128775729E-005  7.070300816081366E-005 
 7.159234252274154E-005  7.249286333384437E-005  7.340471130233096E-005  7.432802890630153E-005 
 7.526296041601034E-005  7.620965191640782E-005  7.716825132996699E-005  7.813890843979648E-005 
 7.912177491304448E-005  8.011700432459720E-005  8.112475218107496E-005  8.214517594513058E-005 
 8.317843506005331E-005  8.422469097468194E-005  8.528410716863190E-005  8.635684917783882E-005 
 8.744308462042415E-005  8.854298322288577E-005  8.965671684661796E-005  9.078445951476554E-005 
 9.192638743941473E-005  9.308267904912700E-005  9.425351501681889E-005  9.543907828799233E-005 
 9.663955410932066E-005  9.785513005759328E-005  9.908599606902521E-005  1.003323444689350E-004 
 1.015943700017956E-004  1.028722698616645E-004  1.041662437229945E-004  1.054764937718341E-004 
 1.068032247374192E-004  1.081466439241622E-004  1.095069612440446E-004  1.108843892494149E-004 
 1.122791431662016E-004  1.136914409275416E-004  1.151215032078335E-004  1.165695534572182E-004 
 1.180358179364933E-004  1.195205257524666E-004  1.210239088937552E-004  1.225462022670333E-004 
 1.240876437337380E-004  1.256484741472343E-004  1.272289373904500E-004  1.288292804139822E-004 
 1.304497532746842E-004  1.320906091747376E-004  1.337521045012149E-004  1.354344988661413E-004 
 1.371380551470592E-004  1.388630395281032E-004  1.406097215415927E-004  1.423783741101457E-004 
 1.441692735893245E-004  1.459826998108164E-004  1.478189361261575E-004  1.496782694510086E-004 
 1.515609903099841E-004  1.534673928820489E-004  1.553977750464833E-004  1.573524384294277E-004 
 1.593316884510130E-004  1.613358343730815E-004  1.633651893475112E-004  1.654200704651454E-004 
 1.675007988053395E-004  1.696076994861300E-004  1.717411017150348E-004  1.739013388404925E-004 
 1.760887484039491E-004  1.783036721925991E-004  1.805464562927908E-004  1.828174511441030E-004 
 1.851170115941014E-004  1.874454969537849E-004  1.898032710537281E-004  1.921907023009313E-004 
 1.946081637363841E-004  1.970560330933541E-004  1.995346928564085E-004  2.020445303211781E-004 
 2.045859376548733E-004  2.071593119575604E-004  2.097650553242098E-004  2.124035749075239E-004 
 2.150752829815555E-004  2.177805970061273E-004  2.205199396920593E-004  2.232937390672196E-004 
 2.261024285434037E-004  2.289464469840565E-004  2.318262387728459E-004  2.347422538830977E-004 
 2.376949479481056E-004  2.406847823323245E-004  2.437122242034596E-004  2.467777466054631E-004 
 2.498818285324469E-004  2.530249550035274E-004  2.562076171386105E-004  2.594303122351297E-004 
 2.626935438457510E-004  2.659978218570524E-004  2.693436625691956E-004  2.727315887765993E-004 
 2.761621298496258E-004  2.796358218172977E-004  2.831532074510521E-004  2.867148363495504E-004 
 2.903212650245542E-004  2.939730569878810E-004  2.976707828394553E-004  3.014150203564642E-004 
 3.052063545836373E-004  3.090453779246613E-004  3.129326902347435E-004  3.168688989143416E-004 
 3.208546190040699E-004  3.248904732808014E-004  3.289770923549777E-004  3.331151147691434E-004 
 3.373051870977203E-004  3.415479640480333E-004  3.458441085626139E-004  3.501942919227827E-004 
 3.545991938535399E-004  3.590595026297750E-004  3.635759151838077E-004  3.681491372142890E-004 
 3.727798832964654E-004  3.774688769938331E-004  3.822168509711981E-004  3.870245471091529E-004 
 3.918927166200014E-004  3.968221201651338E-004  4.018135279738824E-004  4.068677199638737E-004 
 4.119854858628873E-004  4.171676253322585E-004  4.224149480918218E-004  4.277282740464341E-004 
 4.331084334140869E-004  4.385562668556257E-004  4.440726256061108E-004  4.496583716078196E-004 
 4.553143776449288E-004  4.610415274798901E-004  4.668407159915156E-004  4.727128493148101E-004 
 4.786588449825517E-004  4.846796320686604E-004  4.907761513333690E-004  4.969493553702145E-004 
 5.032002087548884E-004  5.095296881959489E-004  5.159387826874358E-004  5.224284936634042E-004 
 5.289998351543956E-004  5.356538339458888E-004  5.423915297387323E-004  5.492139753116010E-004 
 5.561222366854977E-004  5.631173932903152E-004  5.702005381335058E-004  5.773727779708618E-004 
 5.846352334794493E-004  5.919890394327187E-004  5.994353448778094E-004  6.069753133150985E-004 
 6.146101228799940E-004  6.223409665270229E-004  6.301690522162352E-004  6.380956031019442E-004 
 6.461218577238540E-004  6.542490702005783E-004  6.624785104256010E-004  6.708114642657017E-004 
 6.792492337618693E-004  6.877931373327562E-004  6.964445099806772E-004  7.052047035002095E-004 
 7.140750866894151E-004  7.230570455637117E-004  7.321519835724492E-004  7.413613218181948E-004 
 7.506864992787851E-004  7.601289730321725E-004  7.696902184840893E-004  7.793717295985918E-004 
 7.891750191314883E-004  7.991016188667123E-004  8.091530798556706E-004  8.193309726595896E-004 
 8.296368875949292E-004  8.400724349818650E-004  8.506392453959064E-004  8.613389699226816E-004 
 8.721732804159133E-004  8.831438697586612E-004  8.942524521278290E-004  9.055007632620121E-004 
 9.168905607327110E-004  9.284236242189522E-004  9.401017557853705E-004  9.519267801637824E-004 
 9.639005450383044E-004  9.760249213340599E-004  9.883018035095116E-004  1.000733109852478E-003 
 1.013320782779866E-003  1.026066789141180E-003  1.038973120525846E-003  1.052041793574402E-003 
 1.065274850293600E-003  1.078674358375475E-003  1.092242411520425E-003  1.105981129764361E-003 
 1.119892659809957E-003  1.133979175362089E-003  1.148242877467470E-003  1.162685994858573E-003 
 1.177310784301876E-003  1.192119530950483E-003  1.207114548701188E-003  1.222298180556021E-003 
 1.237672798988350E-003  1.253240806313586E-003  1.269004635064547E-003  1.284966748371547E-003 
 1.301129640347265E-003  1.317495836476456E-003  1.334067894010563E-003  1.350848402367291E-003 
 1.367839983535211E-003  1.385045292483451E-003  1.402467017576538E-003  1.420107880994462E-003 
 1.437970639158024E-003  1.456058083159528E-003  1.474373039198900E-003  1.492918369025280E-003 
 1.511696970384188E-003  1.530711777470289E-003  1.549965761385878E-003  1.569461930605113E-003 
 1.589203331444099E-003  1.609193048536884E-003  1.629434205317430E-003  1.649929964507668E-003 
 1.670683528611669E-003  1.691698140416046E-003  1.712977083496651E-003  1.734523682731630E-003 
 1.756341304820953E-003  1.778433358812458E-003  1.800803296634528E-003  1.823454613635460E-003 
 1.846390849129620E-003  1.869615586950467E-003  1.893132456010539E-003  1.916945130868469E-003 
 1.941057332303154E-003  1.965472827895121E-003  1.990195432615234E-003  2.015229009420777E-003 
 2.040577469859057E-003  2.066244774678589E-003  2.092234934447972E-003  2.118552010182548E-003 
 2.145200113978944E-003  2.172183409657591E-003  2.199506113413339E-003  2.227172494474237E-003 
 2.255186875768616E-003  2.283553634600546E-003  2.312277203333808E-003  2.341362070084457E-003 
 2.370812779422093E-003  2.400633933079970E-003  2.430830190674020E-003  2.461406270430924E-003 
 2.492366949925352E-003  2.523717066826467E-003  2.555461519653816E-003  2.587605268542738E-003 
 2.620153336019393E-003  2.653110807785543E-003  2.686482833513207E-003  2.720274627649300E-003 
 2.754491470230404E-003  2.789138707707788E-003  2.824221753782796E-003  2.859746090252759E-003 
 2.895717267867522E-003  2.932140907196773E-003  2.969022699508260E-003  3.006368407657065E-003 
 3.044183866986075E-003  3.082474986237741E-003  3.121247748477351E-003  3.160508212027888E-003 
 3.200262511416655E-003  3.240516858333819E-003  3.281277542602980E-003  3.322550933163984E-003 
 3.364343479068077E-003  3.406661710485582E-003  3.449512239726260E-003  3.492901762272483E-003 
 3.536837057825424E-003  3.581324991364401E-003  3.626372514219539E-003  3.671986665157939E-003 
 3.718174571483484E-003  3.764943450150509E-003  3.812300608891457E-003  3.860253447358725E-003 
 3.908809458280895E-003  3.957976228633455E-003  4.007761440824304E-003  4.058172873894137E-003 
 4.109218404731928E-003  4.160906009305733E-003  4.213243763908920E-003  4.266239846422129E-003 
 4.319902537591074E-003  4.374240222320423E-003  4.429261390983976E-003  4.484974640751271E-003 
 4.541388676930936E-003  4.598512314330898E-003  4.656354478635717E-003  4.714924207801252E-003 
 4.774230653466845E-003  4.834283082385290E-003  4.895090877870783E-003  4.956663541265079E-003 
 5.019010693422111E-003  5.082142076211248E-003  5.146067554039491E-003  5.210797115392809E-003 
 5.276340874396855E-003  5.342709072397321E-003  5.409912079560179E-003  5.477960396492020E-003 
 5.546864655880811E-003  5.616635624157266E-003  5.687284203177124E-003  5.758821431924604E-003 
 5.831258488237236E-003  5.904606690552442E-003  5.978877499676062E-003  6.054082520573123E-003 
 6.130233504181154E-003  6.207342349246271E-003  6.285421104182394E-003  6.364481968953834E-003 
 6.444537296981558E-003  6.525599597073451E-003  6.607681535378824E-003  6.690795937367532E-003 
 6.774955789833985E-003  6.860174242926347E-003  6.946464612201306E-003  7.033840380704612E-003 
 7.122315201077864E-003  7.211902897691747E-003  7.302617468806118E-003  7.394473088757287E-003 
 7.487484110172746E-003  7.581665066213826E-003  7.677030672846518E-003  7.773595831140877E-003 
 7.871375629599360E-003  7.970385346514407E-003  8.070640452355723E-003  8.172156612187564E-003 
 8.274949688116436E-003  8.379035741769595E-003  8.484431036804690E-003  8.591152041450993E-003 
 8.699215431082609E-003  8.808638090824014E-003  8.919437118188430E-003  9.031629825749302E-003 
 9.145233743845439E-003  9.260266623320175E-003  9.376746438294956E-003  9.494691388977865E-003 
 9.614119904507404E-003  9.735050645832100E-003  9.857502508626322E-003  9.981494626242753E-003 
 1.010704637270205E-002  1.023417736572003E-002  1.036290746977300E-002  1.049325679920162E-002 
 1.062524572135380E-002  1.075889485976718E-002  1.089422509739155E-002  1.103125757985185E-002 
 1.117001371875228E-002  1.131051519502182E-002  1.145278396230201E-002  1.159684225037718E-002 
 1.174271256864793E-002  1.189041770964827E-002  1.203998075260697E-002  1.219142506705381E-002 
 1.234477431647103E-002  1.250005246199083E-002  1.265728376613937E-002  1.281649279662780E-002 
 1.297770443019108E-002  1.314094385647492E-002  1.330623658197178E-002  1.347360843400634E-002 
 1.364308556477096E-002  1.381469445541216E-002  1.398846192016824E-002  1.416441511055908E-002 
 1.434258151962868E-002  1.452298898624092E-002  1.470566569942952E-002  1.489064020280257E-002 
 1.507794139900254E-002  1.526759855422242E-002  1.545964130277856E-002  1.565409965174115E-002 
 1.585100398562284E-002  1.605038507112640E-002  1.625227406195209E-002  1.645670250366545E-002 
 1.666370233862645E-002  1.687330591098042E-002  1.708554597171199E-002  1.730045568376245E-002 
 1.751806862721154E-002  1.773841880452443E-002  1.796154064586462E-002  1.818746901447377E-002 
 1.841623921211912E-002  1.864788698460948E-002  1.888244852738062E-002  1.911996049115080E-002 
 1.936045998764759E-002  1.960398459540661E-002  1.985057236564326E-002  2.010026182819836E-002 
 2.035309199755842E-002  2.060910237895179E-002  2.086833297452141E-002  2.113082428957523E-002 
 2.139661733891532E-002  2.166575365324637E-002  2.193827528566505E-002  2.221422481823089E-002 
 2.249364536861975E-002  2.277658059686115E-002  2.306307471216013E-002  2.335317247980507E-002 
 2.364691922816237E-002  2.394436085575909E-002  2.424554383845473E-002  2.455051523670306E-002 
 2.485932270290554E-002  2.517201448885703E-002  2.548863945328525E-002  2.580924706948511E-002 
 2.613388743304889E-002  2.646261126969389E-002  2.679546994318839E-002  2.713251546337729E-002 
 2.747380049430889E-002  2.781937836246362E-002  2.816930306508645E-002  2.852362927862408E-002 
 2.888241236726826E-002  2.924570839160657E-002  2.961357411738192E-002  2.998606702436240E-002 
 3.036324531532256E-002  3.074516792513772E-002  3.113189452999273E-002  3.152348555670639E-002 
 3.192000219217331E-002  3.232150639292451E-002  3.272806089480820E-002  3.313972922279248E-002 
 3.355657570089113E-002  3.397866546221442E-002  3.440606445914632E-002  3.483883947364961E-002 
 3.527705812770086E-002  3.572078889385629E-002  3.617010110595090E-002  3.662506496993195E-002 
 3.708575157482880E-002  3.755223290386080E-002  3.802458184568464E-002  3.850287220578347E-002 
 3.898717871799916E-002  3.947757705620954E-002  3.997414384615273E-002  4.047695667739993E-002 
 4.098609411547897E-002  4.150163571415041E-002  4.202366202783788E-002  4.255225462421504E-002 
 4.308749609695047E-002  4.362947007861324E-002  4.417826125374064E-002  4.473395537207028E-002 
 4.529663926193877E-002  4.586640084384867E-002  4.644332914420634E-002  4.702751430923248E-002 
 4.761904761904762E-002  4.821802150193498E-002  4.882452954878234E-002  4.943866652770598E-002 
 5.006052839885832E-002  5.069021232942187E-002  5.132781670879199E-002  5.197344116395010E-002 
 5.262718657503086E-002  5.328915509108482E-002  5.395945014603935E-002  5.463817647486059E-002 
 5.532544012991826E-002  5.602134849755672E-002  5.672601031487424E-002  5.743953568671337E-002 
 5.816203610286524E-002  5.889362445548977E-002  5.963441505675548E-002  6.038452365670097E-002 
 6.114406746132102E-002  6.191316515088054E-002  6.269193689845819E-002  6.348050438872398E-002 
 6.427899083695257E-002  6.508752100827601E-002  6.590622123717865E-002  6.673521944723684E-002 
 6.757464517110752E-002  6.842462957076788E-002  6.928530545800958E-002  7.015680731519122E-002 
 7.103927131625098E-002  7.193283534798445E-002  7.283763903158952E-002  7.375382374448253E-002 
 7.468153264238901E-002  7.562091068171162E-002  7.657210464218019E-002  7.753526314978625E-002 
 7.851053670000610E-002  7.949807768131634E-002  8.049804039900438E-002  8.151058109927931E-002 
 8.253585799368554E-002  8.357403128382374E-002  8.462526318638279E-002  8.568971795848615E-002 
 8.676756192335762E-002  8.785896349630958E-002  8.896409321105821E-002  9.008312374637001E-002 
 9.121622995304270E-002  9.236358888122644E-002  9.352537980808802E-002  9.470178426582343E-002 
 9.589298607002272E-002  9.709917134839123E-002  9.832052856983274E-002  9.955724857389796E-002 
 1.008095246006036E-001  1.020775523206267E-001  1.033615298658782E-001  1.046616578604621E-001 
 1.059781394520223E-001  1.073111803434861E-001  1.086609888252050E-001  1.100277758075002E-001 
 1.114117548536187E-001  1.128131422131020E-001  1.142321568555761E-001  1.156690205049661E-001 
 1.171239576741405E-001  1.185971956999920E-001  1.200889647789595E-001  1.215994980029965E-001 
 1.231290313959927E-001  1.246778039506525E-001  1.262460576658385E-001  1.278340375843844E-001 
 1.294419918313831E-001  1.310701716529575E-001  1.327188314555167E-001  1.343882288455095E-001 
 1.360786246696745E-001  1.377902830557982E-001  1.395234714539859E-001  1.412784606784509E-001 
 1.430555249498301E-001  1.448549419380317E-001  1.466769928056205E-001  1.485219622517522E-001 
 1.503901385566557E-001  1.522818136266798E-001  1.541972830399030E-001  1.561368460923178E-001 
 1.581008058445977E-001  1.600894691694491E-001  1.621031467995628E-001  1.641421533761656E-001 
 1.662068074981829E-001  1.682974317720226E-001  1.704143528619800E-001  1.725579015412829E-001 
 1.747284127437737E-001  1.769262256162430E-001  1.791516835714245E-001  1.814051343416506E-001 
 1.836869300331892E-001  1.859974271812598E-001  1.883369868057418E-001  1.907059744675871E-001 
 1.931047603259370E-001  1.955337191959624E-001  1.979932306074291E-001  2.004836788639981E-001 
 2.030054531032773E-001  2.055589473576212E-001  2.081445606157027E-001  2.107626968848542E-001 
 2.134137652541936E-001  2.160981799585480E-001  2.188163604431757E-001  2.215687314293080E-001 
 2.243557229805117E-001  2.271777705698858E-001  2.300353151481087E-001  2.329288032123336E-001 
 2.358586868759578E-001  2.388254239392649E-001  2.418294779609563E-001  2.448713183305853E-001 
 2.479514203418976E-001  2.510702652670995E-001  2.542283404320562E-001  2.574261392924365E-001 
 2.606641615108193E-001  2.639429130347630E-001  2.672629061758645E-001  2.706246596898070E-001 
 2.740286988574158E-001  2.774755555667371E-001  2.809657683961437E-001  2.844998826984915E-001 
 2.880784506863310E-001  2.917020315181899E-001  2.953711913859463E-001  2.990865036032936E-001 
 3.028485486953252E-001  3.066579144892411E-001  3.105151962061958E-001  3.144209965543064E-001 
 3.183759258228225E-001  3.223806019774892E-001  3.264356507571040E-001  3.305417057712874E-001 
 3.346994085994905E-001  3.389094088912379E-001  3.431723644676412E-001  3.474889414241827E-001 
 3.518598142347929E-001  3.562856658572422E-001  3.607671878398500E-001  3.653050804295442E-001 
 3.699000526812751E-001  3.745528225688043E-001  3.792641170968943E-001  3.840346724148988E-001 
 3.888652339317927E-001  3.937565564326416E-001  3.987094041965364E-001  4.037245511160182E-001 
 4.088027808179951E-001  4.139448867861906E-001  4.191516724851244E-001  4.244239514856541E-001 
 4.297625475921015E-001  4.351682949709680E-001  4.406420382812805E-001  4.461846328065683E-001 
 4.517969445885012E-001  4.574798505622149E-001  4.632342386933280E-001  4.690610081166943E-001 
 4.749610692768917E-001  4.809353440704787E-001  4.869847659900481E-001  4.931102802700807E-001 
 4.993128440346462E-001  5.055934264469529E-001  5.119530088607788E-001  5.183925849738167E-001 
 5.249131609829336E-001  5.315157557413983E-001  5.382014009180757E-001  5.449711411586249E-001 
 5.518260342487334E-001  5.587671512793911E-001  5.657955768142570E-001  5.729124090591209E-001 
 5.801187600334987E-001  5.874157557443936E-001  5.948045363622292E-001  6.022862563990106E-001 
 6.098620848887163E-001  6.175332055699587E-001  6.253008170709538E-001  6.331661330967995E-001 
 6.411303826191290E-001  6.491948100681316E-001  6.573606755270045E-001  6.656292549288404E-001 
 6.740018402559909E-001  6.824797397419500E-001  6.910642780757583E-001  6.997567966089973E-001 
 7.085586535653737E-001  7.174712242529425E-001  7.264959012790085E-001  7.356340947677156E-001 
 7.448872325803891E-001  7.542567605386397E-001  7.637441426502702E-001  7.733508613380409E-001 
 7.830784176712887E-001  7.929283316004830E-001  8.029021421947166E-001  8.130014078821839E-001 
 8.232277066936983E-001  8.335826365092519E-001  8.440678153076973E-001  8.546848814195551E-001 
 8.654354937830032E-001  8.763213322030987E-001  8.873440976142388E-001  8.985055123459469E-001 
 9.098073203919842E-001  9.212512876828485E-001  9.328392023617152E-001  9.445728750638254E-001 
 9.564541391994128E-001  9.684848512401727E-001  9.806668910093350E-001  9.930021619754017E-001 
 1.005492591549554E+000  1.018140131386826E+000  1.030946757691051E+000  1.043914471523641E+000 
 1.057045299116270E+000  1.070341292187458E+000  1.083804528263178E+000  1.097437111001457E+000 
 1.111241170521082E+000  1.125218863734440E+000  1.139372374684531E+000  1.153703914886237E+000 
 1.168215723671875E+000  1.182910068541088E+000  1.197789245515162E+000  1.212855579495767E+000 
 1.228111424628241E+000  1.243559164669428E+000  1.259201213360133E+000  1.275040014802293E+000 
 1.291078043840853E+000  1.307317806450481E+000  1.323761840127128E+000  1.340412714284507E+000 
 1.357273030655586E+000  1.374345423699097E+000  1.391632561011188E+000  1.409137143742237E+000 
 1.426861907018906E+000  1.444809620371522E+000  1.462983088166806E+000  1.481385150046079E+000 
 1.500018681368951E+000  1.518886593662595E+000  1.537991835076701E+000  1.557337390844103E+000 
 1.576926283747253E+000  1.596761574590522E+000  1.616846362678455E+000  1.637183786300058E+000 
 1.657777023219145E+000  1.678629291170883E+000  1.699743848364567E+000  1.721123993992711E+000 
 1.742773068746573E+000  1.764694455338124E+000  1.786891579028619E+000  1.809367908163800E+000 
 1.832126954715816E+000  1.855172274832001E+000  1.878507469390503E+000  1.902136184562949E+000 
 1.926062112384163E+000  1.950288991329038E+000  1.974820606896705E+000  1.999660792202000E+000 
 2.024813428574418E+000  2.050282446164569E+000  2.076071824558262E+000  2.102185593398347E+000 
 2.128627833014327E+000  2.155402675059941E+000  2.182514303158739E+000  2.209966953557761E+000 
 2.237764915789493E+000  2.265912533342081E+000  2.294414204338039E+000  2.323274382221451E+000 
 2.352497576453819E+000  2.382088353218705E+000  2.412051336135175E+000  2.442391206980272E+000 
 2.473112706420547E+000  2.504220634752783E+000  2.535719852654081E+000  2.567615281941312E+000 
 2.599911906340202E+000  2.632614772264023E+000  2.665728989602103E+000  2.699259732518279E+000 
 2.733212240259345E+000  2.767591817973714E+000  2.802403837540355E+000  2.837653738408142E+000 
 2.873347028445812E+000  2.909489284802542E+000  2.946086154779423E+000  2.983143356711853E+000 
 3.020666680863016E+000  3.058661990328664E+000  3.097135221953191E+000  3.136092387257319E+000 
 3.175539573377391E+000  3.215482944016483E+000  3.255928740407534E+000  3.296883282288507E+000 
 3.338352968889898E+000  3.380344279934616E+000  3.422863776650432E+000  3.465918102795226E+000 
 3.509513985695040E+000  3.553658237295282E+000  3.598357755225080E+000  3.643619523875042E+000 
 3.689450615488618E+000  3.735858191267103E+000  3.782849502488635E+000  3.830431891641205E+000 
 3.878612793569912E+000  3.927399736638720E+000  3.976800343906727E+000  4.026822334319333E+000 
 4.077473523914317E+000  4.128761827043091E+000  4.180695257607377E+000  4.233281930311349E+000 
 4.286530061929610E+000  4.340447972591069E+000  4.395044087078947E+000  4.450326936147226E+000 
 4.506305157853530E+000  4.562987498908899E+000  4.620382816044450E+000  4.678500077395241E+000 
 4.737348363901616E+000  4.796936870728054E+000  4.857274908699985E+000  4.918371905758612E+000 
 4.980237408434011E+000  5.042881083336859E+000  5.106312718668788E+000  5.170542225751886E+000 
 5.235579640577315E+000  5.301435125373446E+000  5.368118970193778E+000  5.435641594524716E+000 
 5.504013548913698E+000  5.573245516617710E+000  5.643348315272540E+000  5.714332898583121E+000 
 5.786210358034999E+000  5.858991924627454E+000  5.932688970628355E+000  6.007313011351056E+000 
 6.082875706953764E+000  6.159388864261380E+000  6.236864438610409E+000  6.315314535716984E+000 
 6.394751413568359E+000  6.475187484338339E+000  6.556635316326606E+000  6.639107635922627E+000 
 6.722617329594143E+000  6.807177445900668E+000  6.892801197532435E+000  6.979501963374818E+000 
 7.067293290598886E+000  7.156188896778143E+000  7.246202672031886E+000  7.337348681195662E+000 
 7.429641166018815E+000  7.523094547389879E+000  7.617723427589842E+000  7.713542592573731E+000 
 7.810567014281046E+000  7.908811852975053E+000  8.008292459611688E+000  8.109024378238150E+000 
 8.211023348421636E+000  8.314305307708784E+000  8.418886394115830E+000  8.524782948650317E+000 
 8.632011517864351E+000  8.740588856439999E+000  8.850531929807349E+000  8.961857916795262E+000 
 9.074584212315713E+000  9.188728430081742E+000  9.304308405359569E+000  9.421342197755511E+000 
 9.539848094037707E+000  9.659844610993567E+000  9.781350498323016E+000  9.904384741568126E+000 
 1.002896656507975E+001  1.015511543502124E+001  1.028285106241020E+001  1.041219340619829E+001 
 1.054316267638987E+001  1.067577933719987E+001  1.081006411025134E+001  1.094603797781328E+001 
 1.108372218607916E+001  1.122313824848660E+001  1.136430794907904E+001  1.150725334590937E+001 
 1.165199677448669E+001  1.179856085126621E+001  1.194696847718308E+001  1.209724284123082E+001 
 1.224940742408452E+001  1.240348600176985E+001  1.255950264937806E+001  1.271748174482772E+001 
 1.287744797267395E+001  1.303942632796526E+001  1.320344212014924E+001  1.336952097702712E+001 
 1.353768884875814E+001  1.370797201191445E+001  1.388039707358667E+001  1.405499097554154E+001 
 1.423178099843146E+001  1.441079476605714E+001  1.459206024968403E+001  1.477560577241269E+001 
 1.496146001360449E+001  1.514965201336276E+001  1.534021117707031E+001  1.553316727998421E+001 
 1.572855047188804E+001  1.592639128180310E+001  1.612672062275846E+001  1.632956979662116E+001 
 1.653497049898738E+001  1.674295482413471E+001  1.695355527003710E+001  1.716680474344275E+001 
 1.738273656501566E+001  1.760138447454235E+001  1.782278263620343E+001  1.804696564391217E+001 
 1.827396852671963E+001  1.850382675428804E+001  1.873657624243317E+001  1.897225335873600E+001 
 1.921089492822548E+001  1.945253823913241E+001  1.969722104871566E+001  1.994498158916211E+001 
 2.019585857356022E+001  2.044989120194924E+001  2.070711916744422E+001  2.096758266243804E+001 
 2.123132238488179E+001  2.149837954464360E+001  2.176879586994805E+001  2.204261361389617E+001 
 2.231987556106748E+001  2.260062503420538E+001  2.288490590098616E+001  2.317276258087368E+001 
 2.346424005205985E+001  2.375938385849248E+001  2.405824011699188E+001  2.436085552445639E+001 
 2.466727736515914E+001  2.497755351813621E+001  2.529173246466767E+001  2.560986329585321E+001 
 2.593199572028236E+001  2.625818007180185E+001  2.658846731738029E+001  2.692290906507167E+001 
 2.726155757207961E+001  2.760446575292221E+001  2.795168718770042E+001  2.830327613046991E+001 
 2.865928751771820E+001  2.901977697694896E+001  2.938480083537351E+001  2.975441612871242E+001 
 3.012868061010734E+001  3.050765275914480E+001  3.089139179099424E+001  3.127995766565999E+001 
 3.167341109735056E+001  3.207181356396521E+001  3.247522731669979E+001  3.288371538977402E+001 
 3.329734161028028E+001  3.371617060815711E+001  3.414026782628761E+001  3.456969953072483E+001 
 3.500453282104638E+001  3.544483564083843E+001  3.589067678831244E+001  3.634212592705484E+001 
 3.679925359691190E+001  3.726213122501222E+001  3.773083113692677E+001  3.820542656797043E+001 
 3.868599167464495E+001  3.917260154622583E+001  3.966533221649566E+001  4.016426067562398E+001 
 4.066946488219769E+001  4.118102377540199E+001  4.169901728735457E+001  4.222352635559567E+001 
 4.275463293573421E+001  4.329242001425392E+001  4.383697162148005E+001  4.438837284470897E+001 