<UPF version="2.0.1">
  <PP_INFO>
    Generated using "atomic" code by A. Dal Corso  v.6.1 svn rev. 13369
    Author: ADC
    Generation date: 16Nov2017
    Pseudopotential type: USPP
    Element: Th
    Functional: PBE

    Suggested minimum cutoff for wavefunctions: 103. Ry
    Suggested minimum cutoff for charge density: 413. Ry
    The Pseudo was generated with a Scalar-Relativistic Calculation
    Local Potential by smoothing AE potential with Bessel fncs, cutoff radius:   2.1000
    Pseudopotential contains additional information for GIPAW reconstruction.

    Valence configuration: 
    nl pn  l   occ       Rcut    Rcut US       E pseu
    6S  1  0  2.00      1.400      1.600    -3.184482
    7S  2  0  2.00      1.400      1.600    -0.299847
    6P  2  1  6.00      1.600      2.100    -1.574222
    6D  3  2  1.00      1.600      2.200    -0.173840
    5F  4  3  1.00      1.200      1.300    -0.092750
    Generation configuration:
    6S  1  0  2.00      1.400      1.600    -3.184527
    7S  2  0  2.00      1.400      1.600    -0.299856
    6P  2  1  6.00      1.600      2.100    -1.574255
    7P  3  1  0.00      1.600      2.100     4.000000
    6D  3  2  1.00      1.600      2.200    -0.173854
    6D  3  2  0.00      1.600      2.200     4.800000
    5F  4  3  1.00      1.200      1.300    -0.092797
    5F  4  3  0.00      1.200      1.300     3.100000

    Pseudization used: troullier-martins
<PP_INPUTFILE>
 &input
   title='Th',
   zed=90.0,
   rel=1,
   config='[Rn] 6d1.0 7s2.0 7p0. 5f1',
   iswitch=3,
   dft='PBE'
 /
 &inputp
   lpaw=.false.,
   pseudotype=3,
   file_pseudopw='Th.pbe-spfn-rrkjus_psl.1.0.0.UPF',
   author='ADC',
   lloc=-1,
   rcloc=2.1,
   which_augfun='PSQ',
   rmatch_augfun_nc=.true.,
   nlcc=.true.,
   new_core_ps=.true.,
   rcore=1.1,
   tm=.true.
 /
8
6S  1  0  2.00  0.00  1.40  1.60  0.0
7S  2  0  2.00  0.00  1.40  1.60  0.0
6P  2  1  6.00  0.00  1.60  2.10  0.0
7P  3  1  0.00  4.00  1.60  2.10  0.0
6D  3  2  1.00  0.00  1.60  2.20  0.0
6D  3  2  0.00  4.80  1.60  2.20  0.0
5F  4  3  1.00  0.00  1.20  1.30  0.0
5F  4  3  0.00  3.10  1.20  1.30  0.0
</PP_INPUTFILE>
  </PP_INFO>
  <!--                               -->
  <!-- END OF HUMAN READABLE SECTION -->
  <!--                               -->
  <PP_HEADER generated='Generated using "atomic" code by A. Dal Corso  v.6.1 svn rev. 13369'
             author="ADC"
             date="16Nov2017"
             comment=""
             element="Th"
             pseudo_type="USPP"
             relativistic="scalar"
             is_ultrasoft="T"
             is_paw="F"
             is_coulomb="F"
             has_so="F"
             has_wfc="F"
             has_gipaw="T"
             paw_as_gipaw="F"
             core_correction="T"
             functional="PBE"
             z_valence="1.200000000000000E+001"
             total_psenergy="-1.553370947978399E+002"
             wfc_cutoff="1.032542272397948E+002"
             rho_cutoff="4.130169089591791E+002"
             l_max="3"
             l_max_rho="6"
             l_local="-1"
             mesh_size="1289"
             number_of_wfc="5"
             number_of_proj="8"/>
  <PP_MESH dx="1.250000000000000E-002" mesh="1289" xmin="-7.000000000000000E+000" rmax="1.000000000000000E+002"
zmesh="9.000000000000000E+001">
    <PP_R type="real" size="1289" columns="4">
 1.013202183949462E-005  1.025946698521136E-005  1.038851519351758E-005  1.051918662845838E-005 
 1.065150170771133E-005  1.078548110577676E-005  1.092114575720821E-005  1.105851685988346E-005 
 1.119761587831678E-005  1.133846454701283E-005  1.148108487386263E-005  1.162549914358243E-005 
 1.177172992119567E-005  1.191980005555885E-005  1.206973268293175E-005  1.222155123059243E-005 
 1.237527942049781E-005  1.253094127299036E-005  1.268856111055119E-005  1.284816356160064E-005 
 1.300977356434638E-005  1.317341637068014E-005  1.333911755012334E-005  1.350690299382238E-005 
 1.367679891859423E-005  1.384883187102277E-005  1.402302873160683E-005  1.419941671896027E-005 
 1.437802339406498E-005  1.455887666457733E-005  1.474200478918879E-005  1.492743638204141E-005 
 1.511520041719882E-005  1.530532623317352E-005  1.549784353751110E-005  1.569278241143202E-005 
 1.589017331453194E-005  1.609004708954106E-005  1.629243496714337E-005  1.649736857085652E-005 
 1.670487992197303E-005  1.691500144456368E-005  1.712776597054389E-005  1.734320674480369E-005 
 1.756135743040241E-005  1.778225211382849E-005  1.800592531032563E-005  1.823241196928584E-005 
 1.846174747971038E-005  1.869396767573935E-005  1.892910884225082E-005  1.916720772053047E-005 
 1.940830151401244E-005  1.965242789409245E-005  1.989962500601411E-005  2.014993147482906E-005 
 2.040338641143230E-005  2.066002941867334E-005  2.091990059754419E-005  2.118304055344529E-005 
 2.144949040253010E-005  2.171929177812964E-005  2.199248683725774E-005  2.226911826719821E-005 
 2.254922929217482E-005  2.283286368010510E-005  2.312006574943921E-005  2.341088037608482E-005 
 2.370535300041898E-005  2.400352963438838E-005  2.430545686869872E-005  2.461118188009463E-005 
 2.492075243873115E-005  2.523421691563786E-005  2.555162429027707E-005  2.587302415819682E-005 
 2.619846673878036E-005  2.652800288309304E-005  2.686168408182781E-005  2.719956247335092E-005 
 2.754169085184843E-005  2.788812267557554E-005  2.823891207520954E-005  2.859411386230778E-005 
 2.895378353787220E-005  2.931797730102135E-005  2.968675205777167E-005  3.006016542992919E-005 
 3.043827576409298E-005  3.082114214077210E-005  3.120882438361681E-005  3.160138306876631E-005 
 3.199887953431381E-005  3.240137588989075E-005  3.280893502637163E-005  3.322162062570067E-005 
 3.363949717084239E-005  3.406262995585715E-005  3.449108509610343E-005  3.492492953856867E-005 
 3.536423107232963E-005  3.580905833914474E-005  3.625948084417943E-005  3.671556896686646E-005 
 3.717739397190302E-005  3.764502802038568E-005  3.811854418108594E-005  3.859801644186726E-005 
 3.908351972124587E-005  3.957512988009700E-005  4.007292373350812E-005  4.057697906278159E-005 
 4.108737462758814E-005  4.160419017827312E-005  4.212750646831786E-005  4.265740526695737E-005 
 4.319396937195700E-005  4.373728262254981E-005  4.428742991253656E-005  4.484449720355065E-005 
 4.540857153848963E-005  4.597974105511596E-005  4.655809499982866E-005  4.714372374160823E-005 
 4.773671878613711E-005  4.833717279009744E-005  4.894517957564895E-005  4.956083414508890E-005 
 5.018423269569629E-005  5.081547263476303E-005  5.145465259481384E-005  5.210187244901790E-005 
 5.275723332679420E-005  5.342083762961317E-005  5.409278904699737E-005  5.477319257272280E-005 
 5.546215452122463E-005  5.615978254420905E-005  5.686618564747390E-005  5.758147420794138E-005 
 5.830575999090427E-005  5.903915616748973E-005  5.978177733234245E-005  6.053373952153027E-005 
 6.129516023067523E-005  6.206615843331222E-005  6.284685459947898E-005  6.363737071453984E-005 
 6.443783029824602E-005  6.524835842403613E-005  6.606908173857883E-005  6.690012848156176E-005 
 6.774162850572931E-005  6.859371329717224E-005  6.945651599587291E-005  7.033017141650831E-005 
 7.121481606951536E-005  7.211058818242097E-005  7.301762772144014E-005  7.393607641334637E-005 
 7.486607776761631E-005  7.580777709885365E-005  7.676132154949480E-005  7.772686011280012E-005 
 7.870454365613473E-005  7.969452494454110E-005  8.069695866460991E-005  8.171200144864929E-005 
 8.273981189915931E-005  8.378055061361418E-005  8.483438020955513E-005  8.590146535000078E-005 
 8.698197276917526E-005  8.807607129856105E-005  8.918393189327956E-005  9.030572765880235E-005 
 9.144163387800034E-005  9.259182803853121E-005  9.375648986057256E-005  9.493580132490385E-005 
 9.612994670134038E-005  9.733911257752698E-005  9.856348788809175E-005  9.980326394416796E-005 
 1.010586344632869E-004  1.023297955996460E-004  1.036169459747592E-004  1.049202867084912E-004 
 1.062400214504834E-004  1.075763564119744E-004  1.089295003980203E-004  1.102996648401223E-004 
 1.116870638292621E-004  1.130919141493541E-004  1.145144353111194E-004  1.159548495863834E-004 
 1.174133820428073E-004  1.188902605790547E-004  1.203857159604017E-004  1.218999818547943E-004 
 1.234332948693590E-004  1.249858945873741E-004  1.265580236057042E-004  1.281499275727069E-004 
 1.297618552266161E-004  1.313940584344069E-004  1.330467922311513E-004  1.347203148598678E-004 
 1.364148878118715E-004  1.381307758676344E-004  1.398682471381555E-004  1.416275731068563E-004 
 1.434090286719986E-004  1.452128921896387E-004  1.470394455171216E-004  1.488889740571203E-004 
 1.507617668022326E-004  1.526581163801349E-004  1.545783190993069E-004  1.565226749953304E-004 
 1.584914878777695E-004  1.604850653776431E-004  1.625037189954914E-004  1.645477641500489E-004 
 1.666175202275302E-004  1.687133106315327E-004  1.708354628335715E-004  1.729843084242454E-004 
 1.751601831650499E-004  1.773634270408403E-004  1.795943843129542E-004  1.818534035730048E-004 
 1.841408377973473E-004  1.864570444022329E-004  1.888023852996565E-004  1.911772269539043E-004 
 1.935819404388168E-004  1.960169014957685E-004  1.984824905923782E-004  2.009790929819590E-004 
 2.035070987637131E-004  2.060669029436876E-004  2.086589054964935E-004  2.112835114278028E-004 
 2.139411308376326E-004  2.166321789844222E-004  2.193570763499198E-004  2.221162487048825E-004 
 2.249101271756043E-004  2.277391483112807E-004  2.306037541522194E-004  2.335043922989114E-004 
 2.364415159819686E-004  2.394155841329419E-004  2.424270614560308E-004  2.454764185006938E-004 
 2.485641317351733E-004  2.516906836209441E-004  2.548565626880992E-004  2.580622636116842E-004 
 2.613082872889901E-004  2.645951409178209E-004  2.679233380757431E-004  2.712933988003337E-004 
 2.747058496704378E-004  2.781612238884461E-004  2.816600613636105E-004  2.852029087964048E-004 
 2.887903197639483E-004  2.924228548065035E-004  2.961010815150609E-004  2.998255746200276E-004 
 3.035969160810285E-004  3.074156951778398E-004  3.112825086024647E-004  3.151979605523678E-004 
 3.191626628248826E-004  3.231772349128053E-004  3.272423041011921E-004  3.313585055653746E-004 
 3.355264824702056E-004  3.397468860705566E-004  3.440203758130766E-004  3.483476194392321E-004 
 3.527292930896439E-004  3.571660814097341E-004  3.616586776567048E-004  3.662077838078596E-004 
 3.708141106702898E-004  3.754783779919395E-004  3.802013145740670E-004  3.849836583851225E-004 
 3.898261566760560E-004  3.947295660970774E-004  3.996946528158852E-004  4.047221926373804E-004 
 4.098129711248891E-004  4.149677837229069E-004  4.201874358813898E-004  4.254727431816073E-004 
 4.308245314635779E-004  4.362436369551090E-004  4.417309064024591E-004  4.472871972026428E-004 
 4.529133775374025E-004  4.586103265088616E-004  4.643789342768879E-004  4.702201021981813E-004 
 4.761347429671132E-004  4.821237807583375E-004  4.881881513711935E-004  4.943288023759280E-004 
 5.005466932617536E-004  5.068427955867711E-004  5.132180931297791E-004  5.196735820439886E-004 
 5.262102710126770E-004  5.328291814067942E-004  5.395313474445552E-004  5.463178163530398E-004 
 5.531896485318216E-004  5.601479177186597E-004  5.671937111572713E-004  5.743281297672157E-004 
 5.815522883159153E-004  5.888673155928422E-004  5.962743545858904E-004  6.037745626599722E-004 
 6.113691117378584E-004  6.190591884832932E-004  6.268459944864150E-004  6.347307464515033E-004 
 6.427146763870943E-004  6.507990317984840E-004  6.589850758826524E-004  6.672740877256438E-004 
 6.756673625024219E-004  6.841662116792471E-004  6.927719632185940E-004  7.014859617866487E-004 
 7.103095689634174E-004  7.192441634554729E-004  7.282911413113818E-004  7.374519161398405E-004 
 7.467279193305529E-004  7.561206002778911E-004  7.656314266073621E-004  7.752618844049296E-004 
 7.850134784492181E-004  7.948877324466358E-004  8.048861892694607E-004  8.150104111969126E-004 
 8.252619801592656E-004  8.356424979850270E-004  8.461535866512258E-004  8.567968885368523E-004 
 8.675740666794796E-004  8.784868050351187E-004  8.895368087413399E-004  9.007258043837026E-004 
 9.120555402655422E-004  9.235277866811396E-004  9.351443361923378E-004  9.469070039086320E-004 
 9.588176277707833E-004  9.708780688380043E-004  9.830902115787478E-004  9.954559641651634E-004 
 1.007977258771251E-003  1.020656051874766E-003  1.033494324562928E-003  1.046494082841963E-003 
 1.059657357950552E-003  1.072986206677210E-003  1.086482711681667E-003  1.100148981820292E-003 
 1.113987152475597E-003  1.127999385889901E-003  1.142187871503183E-003  1.156554826295185E-003 
 1.171102495131826E-003  1.185833151115958E-003  1.200749095942548E-003  1.215852660258322E-003 
 1.231146204025933E-003  1.246632116892708E-003  1.262312818564042E-003  1.278190759181471E-003 
 1.294268419705522E-003  1.310548312303362E-003  1.327032980741329E-003  1.343725000782408E-003 
 1.360626980588688E-003  1.377741561128903E-003  1.395071416591081E-003  1.412619254800395E-003 
 1.430387817642269E-003  1.448379881490797E-003  1.466598257642559E-003  1.485045792755895E-003 
 1.503725369295697E-003  1.522639905983805E-003  1.541792358255059E-003  1.561185718719091E-003 
 1.580823017627930E-003  1.600707323349481E-003  1.620841742846971E-003  1.641229422164409E-003 
 1.661873546918168E-003  1.682777342794741E-003  1.703944076054761E-003  1.725377054043367E-003 
 1.747079625706974E-003  1.769055182116560E-003  1.791307156997521E-003  1.813839027266205E-003 
 1.836654313573184E-003  1.859756580853362E-003  1.883149438883002E-003  1.906836542843765E-003 
 1.930821593893835E-003  1.955108339746239E-003  1.979700575254428E-003  2.004602143005232E-003 
 2.029816933919275E-003  2.055348887858936E-003  2.081201994243967E-003  2.107380292674837E-003 
 2.133887873563936E-003  2.160728878774707E-003  2.187907502268823E-003  2.215427990761502E-003 
 2.243294644385061E-003  2.271511817360823E-003  2.300083918679475E-003  2.329015412789976E-003 
 2.358310820297145E-003  2.387974718668007E-003  2.418011742947033E-003  2.448426586480378E-003 
 2.479224001649220E-003  2.510408800612343E-003  2.541985856058028E-003  2.573960101965432E-003 
 2.606336534375531E-003  2.639120212171757E-003  2.672316257870469E-003  2.705929858421342E-003 
 2.739966266017851E-003  2.774430798917930E-003  2.809328842274961E-003  2.844665848979223E-003 
 2.880447340509907E-003  2.916678907797860E-003  2.953366212099186E-003  2.990514985879821E-003 
 3.028131033711252E-003  3.066220233177480E-003  3.104788535793416E-003  3.143841967934812E-003 
 3.183386631779890E-003  3.223428706262838E-003  3.263974448039255E-003  3.305030192463786E-003 
 3.346602354580026E-003  3.388697430122881E-003  3.431321996533555E-003  3.474482713987265E-003 
 3.518186326433926E-003  3.562439662651899E-003  3.607249637314997E-003  3.652623252072935E-003 
 3.698567596645330E-003  3.745089849929494E-003  3.792197281122155E-003  3.839897250855272E-003 
 3.888197212346171E-003  3.937104712562098E-003  3.986627393399464E-003  4.036772992877905E-003 
 4.087549346349359E-003  4.138964387722367E-003  4.191026150701745E-003  4.243742770043879E-003 
 4.297122482827795E-003  4.351173629742211E-003  4.405904656388811E-003  4.461324114601853E-003 
 4.517440663784437E-003  4.574263072261542E-003  4.631800218650093E-003  4.690061093246284E-003 
 4.749054799430298E-003  4.808790555088750E-003  4.869277694054995E-003  4.930525667567554E-003 
 4.992544045746908E-003  5.055342519090819E-003  5.118930899988512E-003  5.183319124253874E-003 
 5.248517252677941E-003  5.314535472600935E-003  5.381384099504029E-003  5.449073578621182E-003 
 5.517614486571220E-003  5.587017533010455E-003  5.657293562306103E-003  5.728453555230714E-003 
 5.800508630677960E-003  5.873470047399974E-003  5.947349205766559E-003  6.022157649546524E-003 
 6.097907067711406E-003  6.174609296261908E-003  6.252276320077290E-003  6.330920274788034E-003 
 6.410553448672075E-003  6.491188284574845E-003  6.572837381853505E-003  6.655513498345620E-003 
 6.739229552362593E-003  6.823998624708199E-003  6.909833960722448E-003  6.996748972351226E-003 
 7.084757240241931E-003  7.173872515865467E-003  7.264108723664971E-003  7.355479963231492E-003 
 7.448000511507107E-003  7.541684825015721E-003  7.636547542121914E-003  7.732603485318246E-003 
 7.829867663541263E-003  7.928355274516699E-003  8.028081707134141E-003  8.129062543851576E-003 
 8.231313563130199E-003  8.334850741899800E-003  8.439690258055211E-003  8.545848492984122E-003 
 8.653342034126720E-003  8.762187677567519E-003  8.872402430659747E-003  8.984003514682809E-003 
 9.097008367533140E-003  9.211434646448894E-003  9.327300230768972E-003  9.444623224726650E-003 
 9.563421960278425E-003  9.683714999968427E-003  9.805521139828839E-003  9.928859412316842E-003 
 1.005374908928844E-002  1.018020968500976E-002  1.030826095920615E-002  1.043792292014973E-002 
 1.056921582778571E-002  1.070216019689802E-002  1.083677680031481E-002  1.097308667215425E-002 
 1.111111111111111E-002  1.125087168378483E-002  1.139239022804921E-002  1.153568885646473E-002 
 1.168078995973361E-002  1.182771621019844E-002  1.197649056538480E-002  1.212713627158836E-002 
 1.227967686750720E-002  1.243413618791979E-002  1.259053836740918E-002  1.274890784413414E-002 
 1.290926936364759E-002  1.307164798276323E-002  1.323606907347065E-002  1.340255832689979E-002 
 1.357114175733522E-002  1.374184570628095E-002  1.391469684657628E-002  1.408972218656356E-002 
 1.426694907430824E-002  1.444640520187213E-002  1.462811860964024E-002  1.481211769070226E-002 
 1.499843119528893E-002  1.518708823526440E-002  1.537811828867502E-002  1.557155120435526E-002 
 1.576741720659176E-002  1.596574689984584E-002  1.616657127353557E-002  1.636992170687795E-002 
 1.657582997379190E-002  1.678432824786304E-002  1.699544910737089E-002  1.720922554037926E-002 
 1.742569094989077E-002  1.764487915906604E-002  1.786682441650871E-002  1.809156140161679E-002 
 1.831912523000142E-002  1.854955145897381E-002  1.878287609310102E-002  1.901913558983184E-002 
 1.925836686519329E-002  1.950060729955887E-002  1.974589474348932E-002  1.999426752364677E-002 
 2.024576444878344E-002  2.050042481580557E-002  2.075828841591358E-002  2.101939554081967E-002 
 2.128378698904330E-002  2.155150407228617E-002  2.182258862188721E-002  2.209708299535880E-002 
 2.237503008300530E-002  2.265647331462462E-002  2.294145666629431E-002  2.323002466724286E-002 
 2.352222240680750E-002  2.381809554147955E-002  2.411769030203826E-002  2.442105350077448E-002 
 2.472823253880522E-002  2.503927541348009E-002  2.535423072588116E-002  2.567314768841672E-002 
 2.599607613251102E-002  2.632306651639046E-002  2.665416993296776E-002  2.698943811782543E-002 
 2.732892345729945E-002  2.767267899666480E-002  2.802075844842388E-002  2.837321620069919E-002 
 2.873010732573163E-002  2.909148758848558E-002  2.945741345536231E-002  2.982794210302302E-002 
 3.020313142732272E-002  3.058304005235675E-002  3.096772733962057E-002  3.135725339728555E-002 
 3.175167908959073E-002  3.215106604635290E-002  3.255547667259672E-002  3.296497415830520E-002 
 3.337962248829369E-002  3.379948645220739E-002  3.422463165464479E-002  3.465512452540884E-002 
 3.509103232988632E-002  3.553242317955860E-002  3.597936604264403E-002  3.643193075487415E-002 
 3.689018803040613E-002  3.735420947287145E-002  3.782406758656464E-002  3.829983578777197E-002 
 3.878158841624268E-002  3.926940074680526E-002  3.976334900112867E-002  4.026351035963267E-002 
 4.076996297354719E-002  4.128278597712338E-002  4.180205949999905E-002  4.232786467971847E-002 
 4.286028367441081E-002  4.339939967562727E-002  4.394529692133975E-002  4.449806070910366E-002 
 4.505777740938529E-002  4.562453447905790E-002  4.619842047506679E-002  4.677952506826622E-002 
 4.736793905743136E-002  4.796375438344494E-002  4.856706414366396E-002  4.917796260646597E-002 
 4.979654522597850E-002  5.042290865699453E-002  5.105715077007433E-002  5.169937066683854E-002 
 5.234966869545272E-002  5.300814646630669E-002  5.367490686789204E-002  5.435005408287785E-002 
 5.503369360439014E-002  5.572593225249514E-002  5.642687819088980E-002  5.713664094380324E-002 
 5.785533141310945E-002  5.858306189565655E-002  5.931994610081311E-002  6.006609916823519E-002 
 6.082163768585783E-002  6.158667970811138E-002  6.236134477436839E-002  6.314575392762165E-002 
 6.394002973339701E-002  6.474429629890532E-002  6.555867929243353E-002  6.638330596298135E-002 
 6.721830516014389E-002  6.806380735424429E-002  6.891994465672080E-002  6.978685084076851E-002 
 7.066466136224255E-002  7.155351338082293E-002  7.245354578144569E-002  7.336489919600482E-002 
 7.428771602532525E-002  7.522214046141415E-002  7.616831850999092E-002  7.712639801330040E-002 
 7.809652867321445E-002  7.907886207462218E-002  8.007355170911629E-002  8.108075299897596E-002 
 8.210062332145167E-002  8.313332203335651E-002  8.417901049596499E-002  8.523785210022697E-002 
 8.631001229229752E-002  8.739565859938768E-002  8.849496065594201E-002  8.960809023014306E-002 
 9.073522125075163E-002  9.187652983428304E-002  9.303219431252517E-002  9.420239526040423E-002 
 9.538731552419885E-002  9.658714025011113E-002  9.780205691319570E-002  9.903225534665264E-002 
 1.002779277714903E-001  1.015392688265592E-001  1.028164755989654E-001  1.041097476548660E-001 
 1.054192870706503E-001  1.067452984645168E-001  1.080879890284432E-001  1.094475685605620E-001 
 1.108242494979414E-001  1.122182469497784E-001  1.136297787310112E-001  1.150590653963522E-001 
 1.165063302747508E-001  1.179717995042890E-001  1.194557020675150E-001  1.209582698272239E-001 
 1.224797375626845E-001  1.240203430063263E-001  1.255803268808843E-001  1.271599329370125E-001 
 1.287594079913711E-001  1.303790019651913E-001  1.320189679233266E-001  1.336795621137949E-001 
 1.353610440078164E-001  1.370636763403585E-001  1.387877251511868E-001  1.405334598264358E-001 
 1.423011531407005E-001  1.440910812996570E-001  1.459035239832225E-001  1.477387643892532E-001 
 1.495970892777968E-001  1.514787890158974E-001  1.533841576229677E-001  1.553134928167294E-001 
 1.572670960597312E-001  1.592452726064550E-001  1.612483315510103E-001  1.632765858754327E-001 
 1.653303524985872E-001  1.674099523256866E-001  1.695157102984353E-001  1.716479554458003E-001 
 1.738070209354241E-001  1.759932441256826E-001  1.782069666183964E-001  1.804485343122095E-001 
 1.827182974566340E-001  1.850166107067794E-001  1.873438331787672E-001  1.897003285058429E-001 
 1.920864648951963E-001  1.945026151854921E-001  1.969491569051294E-001  1.994264723312295E-001 
 2.019349485493674E-001  2.044749775140564E-001  2.070469561099891E-001  2.096512862140543E-001 
 2.122883747581296E-001  2.149586337926646E-001  2.176624805510669E-001  2.204003375148926E-001 
 2.231726324798630E-001  2.259797986227070E-001  2.288222745688448E-001  2.317005044609270E-001 
 2.346149380282292E-001  2.375660306569260E-001  2.405542434612453E-001  2.435800433555164E-001 
 2.466439031271296E-001  2.497463015104069E-001  2.528877232614081E-001  2.560686592336733E-001 
 2.592896064549191E-001  2.625510682047028E-001  2.658535540930572E-001  2.691975801401220E-001 
 2.725836688567708E-001  2.760123493262538E-001  2.794841572868711E-001  2.829996352156788E-001 
 2.865593324132563E-001  2.901638050895333E-001  2.938136164506978E-001  2.975093367872018E-001 
 3.012515435628657E-001  3.050408215051122E-001  3.088777626963299E-001  3.127629666663850E-001 
 3.166970404863035E-001  3.206805988631226E-001  3.247142642359438E-001  3.287986668731886E-001 
 3.329344449710780E-001  3.371222447533551E-001  3.413627205722548E-001  3.456565350107518E-001 
 3.500043589860885E-001  3.544068718546056E-001  3.588647615178969E-001  3.633787245302908E-001 
 3.679494662076924E-001  3.725777007377885E-001  3.772641512916395E-001  3.820095501366803E-001 
 3.868146387511339E-001  3.916801679398726E-001  3.966068979517323E-001  4.015955985982993E-001 
 4.066470493742004E-001  4.117620395788955E-001  4.169413684400111E-001  4.221858452382200E-001 
 4.274962894336904E-001  4.328735307941335E-001  4.383184095244506E-001  4.438317763980215E-001 
 4.494144928896381E-001  4.550674313101089E-001  4.607914749425646E-001  4.665875181804668E-001 
 4.724564666673642E-001  4.783992374383996E-001  4.844167590635945E-001  4.905099717929476E-001 
 4.966798277033428E-001  5.029272908473196E-001  5.092533374037057E-001  5.156589558301442E-001 
 5.221451470175483E-001  5.287129244464855E-001  5.353633143455424E-001  5.420973558516717E-001 
 5.489161011725576E-001  5.558206157510313E-001  5.628119784315407E-001  5.698912816287300E-001 
 5.770596314981277E-001  5.843181481089827E-001  5.916679656192855E-001  5.991102324529730E-001 
 6.066461114793804E-001  6.142767801949387E-001  6.220034309071573E-001  6.298272709209319E-001 
 6.377495227271804E-001  6.457714241938665E-001  6.538942287594162E-001  6.621192056285665E-001 
 6.704476399706896E-001  6.788808331205930E-001  6.874201027818654E-001  6.960667832327657E-001 
 7.048222255347039E-001  7.136877977433550E-001  7.226648851224112E-001  7.317548903600410E-001 
 7.409592337880579E-001  7.502793536038461E-001  7.597167060950913E-001  7.692727658673183E-001 
 7.789490260743095E-001  7.887469986514104E-001  7.986682145517675E-001  8.087142239855527E-001 
 8.188865966621760E-001  8.291869220355657E-001  8.396168095525187E-001  8.501778889041766E-001 
 8.608718102806775E-001  8.717002446289907E-001  8.826648839140148E-001  8.937674413829479E-001 
 9.050096518329793E-001  9.163932718823680E-001  9.279200802449030E-001  9.395918780078445E-001 
 9.514104889133407E-001  9.633777596433878E-001  9.754955601083880E-001  9.877657837393148E-001 
 1.000190347783576E+000  1.012771193604583E+000  1.025510286985088E+000  1.038409618434353E+000 
 1.051471203499157E+000  1.064697083078743E+000  1.078089323743705E+000  1.091650018058890E+000 
 1.105381284910377E+000  1.119285269836546E+000  1.133364145363330E+000  1.147620111343676E+000 
 1.162055395301269E+000  1.176672252778600E+000  1.191472967689384E+000  1.206459852675440E+000 
 1.221635249468040E+000  1.237001529253804E+000  1.252561093045215E+000  1.268316372055767E+000 
 1.284269828079863E+000  1.300423953877466E+000  1.316781273563593E+000  1.333344343002729E+000 
 1.350115750208166E+000  1.367098115746406E+000  1.384294093146616E+000  1.401706369315246E+000 
 1.419337664955878E+000  1.437190734994322E+000  1.455268369009096E+000  1.473573391667296E+000 
 1.492108663165950E+000  1.510877079678946E+000  1.529881573809541E+000  1.549125115048613E+000 
 1.568610710238633E+000  1.588341404043489E+000  1.608320279424235E+000  1.628550458120791E+000 
 1.649035101139740E+000  1.669777409248233E+000  1.690780623474107E+000  1.712048025612321E+000 
 1.733582938737724E+000  1.755388727724305E+000  1.777468799770963E+000  1.799826604933870E+000 
 1.822465636665578E+000  1.845389432360846E+000  1.868601573909394E+000  1.892105688255568E+000 
 1.915905447965048E+000  1.940004571798716E+000  1.964406825293694E+000  1.989116021351741E+000 
 2.014136020835015E+000  2.039470733169333E+000  2.065124116955048E+000  2.091100180585561E+000 
 2.117402982873667E+000  2.144036633685740E+000  2.171005294583900E+000  2.198313179476286E+000 
 2.225964555275465E+000  2.253963742565166E+000  2.282315116275371E+000  2.311023106365896E+000 
 2.340092198518609E+000  2.369526934838289E+000  2.399331914562379E+000  2.429511794779602E+000 
 2.460071291157635E+000  2.491015178679970E+000  2.522348292391979E+000  2.554075528156432E+000 
 2.586201843418470E+000  2.618732257980207E+000  2.651671854785110E+000  2.685025780712186E+000 
 2.718799247380226E+000  2.752997531962115E+000  2.787625978009384E+000  2.822689996287192E+000 
 2.858195065619722E+000  2.894146733746298E+000  2.930550618188214E+000  2.967412407126468E+000 
 3.004737860290589E+000  3.042532809858562E+000  3.080803161368155E+000  3.119554894639661E+000 
 3.158794064710233E+000  3.198526802780037E+000  3.238759317170224E+000  3.279497894293026E+000 
 3.320748899634006E+000  3.362518778746665E+000  3.404814058259606E+000  3.447641346896293E+000 
 3.491007336507713E+000  3.534918803117979E+000  3.579382607983073E+000  3.624405698662981E+000 
 3.669995110107210E+000  3.716157965754056E+000  3.762901478643640E+000  3.810232952544938E+000 
 3.858159783097057E+000  3.906689458964764E+000  3.955829563008657E+000  4.005587773469975E+000 
 4.055971865170321E+000  4.106989710726547E+000  4.158649281780802E+000  4.210958650246173E+000 
 4.263925989567913E+000  4.317559576000543E+000  4.371867789901072E+000  4.426859117038400E+000 
 4.482542149919279E+000  4.538925589130895E+000  4.596018244700319E+000  4.653829037471159E+000 
 4.712367000497384E+000  4.771641280454821E+000  4.831661139070318E+000  4.892435954568877E+000 
 4.953975223139084E+000  5.016288560416839E+000  5.079385702987877E+000  5.143276509909106E+000 
 5.207970964249077E+000  5.273479174647921E+000  5.339811376896771E+000  5.406977935537191E+000 
 5.474989345480631E+000  5.543856233648245E+000  5.613589360631439E+000  5.684199622373158E+000 
 5.755698051870467E+000  5.828095820898449E+000  5.901404241755790E+000  5.975634769032416E+000 
 6.050799001399216E+000  6.126908683420431E+000  6.203975707388733E+000  6.282012115183391E+000 
 6.361030100151909E+000  6.441042009015183E+000  6.522060343796765E+000  6.604097763776314E+000 
 6.687167087467580E+000  6.771281294621423E+000  6.856453528253819E+000  6.942697096699566E+000 
 7.030025475691712E+000  7.118452310467121E+000  7.207991417898655E+000  7.298656788653997E+000 
 7.390462589381798E+000  7.483423164925216E+000  7.577553040563283E+000  7.672866924280604E+000 
 7.769379709065398E+000  7.867106475236660E+000  7.966062492800443E+000  8.066263223835792E+000 
 8.167724324910822E+000  8.270461649528967E+000  8.374491250606237E+000  8.479829382979462E+000 
 8.586492505946110E+000  8.694497285836185E+000  8.803860598616245E+000  8.914599532526433E+000 