<UPF version="2.0.1">
  <PP_INFO>
    Generated using "atomic" code by A. Dal Corso  v.6.1 svn rev. 13369
    Author: ADC
    Generation date: 16Nov2017
    Pseudopotential type: PAW
    Element:  U
    Functional:  SLA  PW   PBX  PBC

    Suggested minimum cutoff for wavefunctions:  93. Ry
    Suggested minimum cutoff for charge density: 683. Ry
    The Pseudo was generated with a Scalar-Relativistic Calculation
    Local Potential by smoothing AE potential with Bessel fncs, cutoff radius:   2.1000
    Pseudopotential contains additional information for GIPAW reconstruction.

    Valence configuration: 
    nl pn  l   occ       Rcut    Rcut US       E pseu
    6S  1  0  2.00      1.200      1.400    -3.618410
    7S  2  0  2.00      1.200      1.400    -0.324992
    6P  2  1  6.00      1.300      2.200    -1.783595
    6D  3  2  1.50      2.000      2.200    -0.199385
    5F  4  3  2.50      1.000      1.300    -0.353103
    Generation configuration:
    6S  1  0  2.00      1.200      1.400    -3.618439
    7S  2  0  2.00      1.200      1.400    -0.324998
    6P  2  1  6.00      1.300      2.200    -1.783621
    7P  3  1  0.00      1.300      2.200     5.000000
    6D  3  2  1.50      2.000      2.200    -0.199402
    6D  3  2  0.00      2.000      2.200     4.800000
    5F  4  3  2.50      1.000      1.300    -0.353128
    5F  4  3  0.00      1.000      1.300    -0.500000

    Pseudization used: troullier-martins
<PP_INPUTFILE>
 &input
   title='U',
   zed=92.0,
   rel=1,
   config='[Rn] 6d1.5 7s2.0 7p0. 5f2.5',
   iswitch=3,
   dft='PBE'
 /
 &inputp
   lpaw=.true.,
   pseudotype=3,
   file_pseudopw='U.pbe-spfn-kjpaw_psl.1.0.0.UPF',
   author='ADC',
   lloc=-1,
   rcloc=2.1,
   which_augfun='PSQ',
   rmatch_augfun_nc=.true.,
   nlcc=.true.,
   new_core_ps=.true.,
   rcore=1.5,
   tm=.true.
 /
8
6S  1  0  2.00  0.00  1.20  1.40  0.0
7S  2  0  2.00  0.00  1.20  1.40  0.0
6P  2  1  6.00  0.00  1.30  2.20  0.0
7P  3  1  0.00  5.00  1.30  2.20  0.0
6D  3  2  1.50  0.00  2.00  2.20  0.0
6D  3  2  0.00  4.80  2.00  2.20  0.0
5F  4  3  2.50  0.00  1.00  1.30  0.0
5F  4  3  0.00 -0.50  1.00  1.30  0.0
</PP_INPUTFILE>
  </PP_INFO>
  <!--                               -->
  <!-- END OF HUMAN READABLE SECTION -->
  <!--                               -->
  <PP_HEADER generated='Generated using "atomic" code by A. Dal Corso  v.6.1 svn rev. 13369'
             author="ADC"
             date="16Nov2017"
             comment=""
             element=" U"
             pseudo_type="PAW"
             relativistic="scalar"
             is_ultrasoft="T"
             is_paw="T"
             is_coulomb="F"
             has_so="F"
             has_wfc="T"
             has_gipaw="T"
             paw_as_gipaw="T"
             core_correction="T"
             functional=" SLA  PW   PBX  PBC"
             z_valence="1.400000000000000E+001"
             total_psenergy="-1.027848078770794E+003"
             wfc_cutoff="9.325745818602061E+001"
             rho_cutoff="6.834523413334101E+002"
             l_max="3"
             l_max_rho="6"
             l_local="-1"
             mesh_size="1291"
             number_of_wfc="5"
             number_of_proj="8"/>
  <PP_MESH dx="1.250000000000000E-002" mesh="1291" xmin="-7.000000000000000E+000" rmax="1.000000000000000E+002"
zmesh="9.200000000000000E+001">
    <PP_R type="real" size="1291" columns="4">
 9.911760495157785E-006  1.003643509422850E-005  1.016267790670198E-005  1.029050865827450E-005 
 1.041994732276108E-005  1.055101412521640E-005  1.068372954509499E-005  1.081811431945121E-005 
 1.095418944617946E-005  1.109197618729516E-005  1.123149607225692E-005  1.137277090133064E-005 
 1.151582274899576E-005  1.166067396739453E-005  1.180734718982454E-005  1.195586533427520E-005 
 1.210625160700873E-005  1.225852950618622E-005  1.241272282553921E-005  1.256885565808758E-005 
 1.272695239990407E-005  1.288703775392623E-005  1.304913673381631E-005  1.321327466786973E-005 
 1.337947720297262E-005  1.354777030860923E-005  1.371818028091972E-005  1.389073374680896E-005 
 1.406545766810704E-005  1.424237934578217E-005  1.442152642420643E-005  1.460292689547529E-005 
 1.478660910378145E-005  1.497260174984366E-005  1.516093389539129E-005  1.535163496770524E-005 
 1.554473476421603E-005  1.574026345715974E-005  1.593825159829242E-005  1.613873012366399E-005 
 1.634173035845187E-005  1.654728402185578E-005  1.675542323205381E-005  1.696618051122100E-005 
 1.717958879061105E-005  1.739568141570179E-005  1.761449215140551E-005  1.783605518734485E-005 
 1.806040514319493E-005  1.828757707409284E-005  1.851760647611494E-005  1.875052929182329E-005 
 1.898638191588174E-005  1.922520120074262E-005  1.946702446240511E-005  1.971188948624582E-005 
 1.995983453292290E-005  2.021089834435436E-005  2.046512014977149E-005  2.072253967184866E-005 
 2.098319713290988E-005  2.124713326121377E-005  2.151438929731736E-005  2.178500700051999E-005 
 2.205902865538841E-005  2.233649707836368E-005  2.261745562445141E-005  2.290194819399602E-005 
 2.319001923954031E-005  2.348171377277125E-005  2.377707737155310E-005  2.407615618704910E-005 
 2.437899695093265E-005  2.468564698268921E-005  2.499615419701017E-005  2.531056711127950E-005 
 2.562893485315471E-005  2.595130716824319E-005  2.627773442787504E-005  2.660826763697373E-005 
 2.694295844202564E-005  2.728185913914998E-005  2.762502268227020E-005  2.797250269138804E-005 
 2.832435346096194E-005  2.868062996839045E-005  2.904138788260272E-005  2.940668357275681E-005 
 2.977657411704748E-005  3.015111731162487E-005  3.053037167962514E-005  3.091439648031486E-005 
 3.130325171835047E-005  3.169699815315400E-005  3.209569730840703E-005  3.249941148166370E-005 
 3.290820375408495E-005  3.332213800029503E-005  3.374127889836205E-005  3.416569193990413E-005 
 3.459544344032246E-005  3.503060054916333E-005  3.547123126061030E-005  3.591740442410850E-005 
 3.636918975512252E-005  3.682665784602948E-005  3.728988017714929E-005  3.775892912791362E-005 
 3.823387798817531E-005  3.871480096966011E-005  3.920177321756229E-005  3.969487082228634E-005 
 4.019417083133622E-005  4.069975126135414E-005  4.121169111031096E-005  4.173007036984960E-005 
 4.225497003778402E-005  4.278647213075525E-005  4.332465969704664E-005  4.386961682956041E-005 
 4.442142867895725E-005  4.498018146696127E-005  4.554596249983238E-005  4.611886018200805E-005 
 4.669896402991674E-005  4.728636468596488E-005  4.788115393270007E-005  4.848342470715219E-005 
 4.909327111535507E-005  4.971078844705080E-005  5.033607319057876E-005  5.096922304795229E-005 
 5.161033695012476E-005  5.225951507244767E-005  5.291685885032351E-005  5.358247099505491E-005 
 5.425645550989366E-005  5.493891770629146E-005  5.562996422035491E-005  5.632970302950788E-005 
 5.703824346936287E-005  5.775569625080517E-005  5.848217347729153E-005  5.921778866236657E-005 
 5.996265674739969E-005  6.071689411954456E-005  6.148061862992509E-005  6.225394961204984E-005 
 6.303700790045805E-005  6.382991584960056E-005  6.463279735295755E-005  6.544577786239737E-005 
 6.626898440777868E-005  6.710254561679893E-005  6.794659173509306E-005  6.880125464658421E-005 
 6.966666789409111E-005  7.054296670019442E-005  7.143028798836536E-005  7.232877040436059E-005 
 7.323855433788551E-005  7.415978194453074E-005  7.509259716798404E-005  7.603714576252186E-005 
 7.699357531578397E-005  7.796203527183368E-005  7.894267695450969E-005  7.993565359106996E-005 
 8.094112033613411E-005  8.195923429592692E-005  8.299015455282567E-005  8.403404219021816E-005 
 8.509106031767145E-005  8.616137409641841E-005  8.724515076516479E-005  8.834255966621969E-005 
 8.945377227195685E-005  9.057896221160662E-005  9.171830529838620E-005  9.287197955697115E-005 
 9.404016525131124E-005  9.522304491279814E-005  9.642080336878541E-005  9.763362777146866E-005 
 9.886170762712853E-005  1.001052348257407E-004  1.013644036709601E-004  1.026394109104806E-004 
 1.039304557667772E-004  1.052377399682358E-004  1.065614677806720E-004  1.079018460392501E-004 
 1.092590841807998E-004  1.106333942765420E-004  1.120249910652255E-004  1.134340919866794E-004 
 1.148609172157897E-004  1.163056896969014E-004  1.177686351786538E-004  1.192499822492553E-004 
 1.207499623721990E-004  1.222688099224312E-004  1.238067622229715E-004  1.253640595819959E-004 
 1.269409453303854E-004  1.285376658597458E-004  1.301544706609089E-004  1.317916123629141E-004 
 1.334493467724830E-004  1.351279329139901E-004  1.368276330699348E-004  1.385487128219246E-004 
 1.402914410921725E-004  1.420560901855161E-004  1.438429358319668E-004  1.456522572297916E-004 
 1.474843370891406E-004  1.493394616762189E-004  1.512179208580176E-004  1.531200081476058E-004 
 1.550460207499919E-004  1.569962596085639E-004  1.589710294521111E-004  1.609706388424391E-004 
 1.629954002225839E-004  1.650456299656298E-004  1.671216484241460E-004  1.692237799802401E-004 
 1.713523530962444E-004  1.735077003660394E-004  1.756901585670204E-004  1.779000687127221E-004 
 1.801377761061006E-004  1.824036303934887E-004  1.846979856192292E-004  1.870212002809933E-004 
 1.893736373857991E-004  1.917556645067300E-004  1.941676538403699E-004  1.966099822649599E-004 
 1.990830313992846E-004  2.015871876623031E-004  2.041228423335262E-004  2.066903916141550E-004 
 2.092902366889884E-004  2.119227837891086E-004  2.145884442553563E-004  2.172876346026025E-004 
 2.200207765848303E-004  2.227882972610354E-004  2.255906290619537E-004  2.284282098576308E-004 
 2.313014830258389E-004  2.342108975213562E-004  2.371569079461171E-004  2.401399746202439E-004 
 2.431605636539739E-004  2.462191470204888E-004  2.493162026296623E-004  2.524522144027345E-004 
 2.556276723479251E-004  2.588430726369987E-004  2.620989176827921E-004  2.653957162177178E-004 
 2.687339833732544E-004  2.721142407604364E-004  2.755370165513581E-004  2.790028455617004E-004 
 2.825122693342973E-004  2.860658362237534E-004  2.896641014821249E-004  2.933076273456792E-004 
 2.969969831227453E-004  3.007327452826694E-004  3.045154975458894E-004  3.083458309751424E-004 
 3.122243440678199E-004  3.161516428494834E-004  3.201283409685575E-004  3.241550597922142E-004 
 3.282324285034620E-004  3.323610841994576E-004  3.365416719910532E-004  3.407748451035966E-004 
 3.450612649789995E-004  3.494016013790877E-004  3.537965324902547E-004  3.582467450294279E-004 
 3.627529343513705E-004  3.673158045573322E-004  3.719360686050655E-004  3.766144484202285E-004 
 3.813516750091852E-004  3.861484885732279E-004  3.910056386242355E-004  3.959238841017852E-004 
 4.009039934917393E-004  4.059467449463220E-004  4.110529264057074E-004  4.162233357211376E-004 
 4.214587807795871E-004  4.267600796299980E-004  4.321280606111013E-004  4.375635624808462E-004 
 4.430674345474589E-004  4.486405368021473E-004  4.542837400534774E-004  4.599979260634382E-004 
 4.657839876852194E-004  4.716428290027215E-004  4.775753654718198E-004  4.835825240634078E-004 
 4.896652434082372E-004  4.958244739435805E-004  5.020611780617404E-004  5.083763302604237E-004 
 5.147709172950101E-004  5.212459383327334E-004  5.278024051088041E-004  5.344413420844955E-004 
 5.411637866072167E-004  5.479707890726019E-004  5.548634130886350E-004  5.618427356418414E-004 
 5.689098472655694E-004  5.760658522103891E-004  5.833118686166319E-004  5.906490286891032E-004 
 5.980784788739919E-004  6.056013800380043E-004  6.132189076497538E-004  6.209322519634270E-004 
 6.287426182047661E-004  6.366512267593865E-004  6.446593133634643E-004  6.527681292968255E-004 
 6.609789415784563E-004  6.692930331644809E-004  6.777117031486245E-004  6.862362669651997E-004 
 6.948680565946475E-004  7.036084207716582E-004  7.124587251959170E-004  7.214203527454961E-004 
 7.304947036929321E-004  7.396831959240238E-004  7.489872651593759E-004  7.584083651787355E-004 
 7.679479680481481E-004  7.776075643499698E-004  7.873886634157767E-004  7.972927935621971E-004 
 8.073215023297164E-004  8.174763567244829E-004  8.277589434631557E-004  8.381708692208338E-004 
 8.487137608820997E-004  8.593892657952248E-004  8.701990520295716E-004  8.811448086362308E-004 
 8.922282459119435E-004  9.034510956663322E-004  9.148151114925044E-004  9.263220690410530E-004 
 9.379737662975054E-004  9.497720238632651E-004  9.617186852400795E-004  9.738156171180947E-004 
 9.860647096675277E-004  9.984678768340098E-004  1.011027056637647E-003  1.023744211475834E-003 
 1.036621328429888E-003  1.049660419575531E-003  1.062863522297283E-003  1.076232699606808E-003 
 1.089770040465258E-003  1.103477660109686E-003  1.117357700383548E-003  1.131412330071377E-003 
 1.145643745237656E-003  1.160054169569959E-003  1.174645854726406E-003  1.189421080687489E-003 
 1.204382156112326E-003  1.219531418699388E-003  1.234871235551780E-003  1.250404003547092E-003 
 1.266132149711924E-003  1.282058131601115E-003  1.298184437681735E-003  1.314513587721921E-003 
 1.331048133184586E-003  1.347790657626101E-003  1.364743777099971E-003  1.381910140565604E-003 
 1.399292430302220E-003  1.416893362327953E-003  1.434715686824242E-003  1.452762188565549E-003 
 1.471035687354486E-003  1.489539038462418E-003  1.508275133075601E-003  1.527246898746937E-003 
 1.546457299853409E-003  1.565909338059275E-003  1.585606052785081E-003  1.605550521682575E-003 
 1.625745861115599E-003  1.646195226647029E-003  1.666901813531831E-003  1.687868857216337E-003 
 1.709099633843779E-003  1.730597460766199E-003  1.752365697062792E-003  1.774407744064765E-003 
 1.796727045886810E-003  1.819327089965245E-003  1.842211407602937E-003  1.865383574521075E-003 
 1.888847211417882E-003  1.912605984534364E-003  1.936663606227158E-003  1.961023835548596E-003 
 1.985690478834074E-003  2.010667390296786E-003  2.035958472629968E-003  2.061567677616688E-003 
 2.087499006747328E-003  2.113756511844822E-003  2.140344295697762E-003  2.167266512701469E-003 
 2.194527369507124E-003  2.222131125679066E-003  2.250082094360356E-003  2.278384642946715E-003 
 2.307043193768947E-003  2.336062224783920E-003  2.365446270274272E-003  2.395199921556891E-003 
 2.425327827700324E-003  2.455834696251205E-003  2.486725293969810E-003  2.518004447574879E-003 
 2.549677044497802E-003  2.581748033646284E-003  2.614222426177632E-003  2.647105296281748E-003 
 2.680401781973985E-003  2.714117085897975E-003  2.748256476138548E-003  2.782825287044892E-003 
 2.817828920064039E-003  2.853272844584863E-003  2.889162598792682E-003  2.925503790534607E-003 
 2.962302098195790E-003  2.999563271586665E-003  3.037293132841385E-003  3.075497577327533E-003 
 3.114182574567284E-003  3.153354169170167E-003  3.193018481777532E-003  3.233181710018921E-003 
 3.273850129480460E-003  3.315030094685427E-003  3.356728040087173E-003  3.398950481074499E-003 
 3.441704014989711E-003  3.484995322159466E-003  3.528831166938584E-003  3.573218398767002E-003 
 3.618163953239996E-003  3.663674853191896E-003  3.709758209793412E-003  3.756421223662766E-003 
 3.803671185990820E-003  3.851515479680313E-003  3.899961580499476E-003  3.949017058250125E-003 
 3.998689577950460E-003  4.048986901032750E-003  4.099916886556055E-003  4.151487492434229E-003 
 4.203706776679364E-003  4.256582898660858E-003  4.310124120380358E-003  4.364338807762683E-003 
 4.419235431963036E-003  4.474822570690639E-003  4.531108909549005E-003  4.588103243393104E-003 
 4.645814477703553E-003  4.704251629978125E-003  4.763423831140756E-003  4.823340326968260E-003 
 4.884010479535018E-003  4.945443768675801E-003  5.007649793467022E-003  5.070638273726616E-003 
 5.134419051532768E-003  5.199002092761784E-003  5.264397488645246E-003  5.330615457346808E-003 
 5.397666345558803E-003  5.465560630118923E-003  5.534308919647275E-003  5.603921956203960E-003 
 5.674410616967569E-003  5.745785915934758E-003  5.818059005641199E-003  5.891241178904209E-003 
 5.965343870587246E-003  6.040378659386648E-003  6.116357269640827E-003  6.193291573162207E-003 
 6.271193591092248E-003  6.350075495779739E-003  6.429949612682777E-003  6.510828422294628E-003 
 6.592724562093841E-003  6.675650828518891E-003  6.759620178967612E-003  6.844645733821852E-003 
 6.930740778497541E-003  7.017918765520566E-003  7.106193316628776E-003  7.195578224900372E-003 
 7.286087456909127E-003  7.377735154906683E-003  7.470535639032307E-003  7.564503409550458E-003 
 7.659653149116452E-003  7.755999725070684E-003  7.853558191761659E-003  7.952343792898281E-003 
 8.052371963931717E-003  8.153658334467196E-003  8.256218730706184E-003  8.360069177919250E-003 
 8.465225902950053E-003  8.571705336750834E-003  8.679524116949753E-003  8.788699090450575E-003 
 8.899247316065027E-003  9.011186067178266E-003  9.124532834447908E-003  9.239305328536940E-003 
 9.355521482881069E-003  9.473199456490854E-003  9.592357636789081E-003  9.713014642483867E-003 
 9.835189326477825E-003  9.958900778813893E-003  1.008416832965819E-002  1.021101155232039E-002 
 1.033945026631211E-002  1.046950454044372E-002  1.060119469596014E-002  1.073454130971611E-002 
 1.086956521739130E-002  1.100628751674603E-002  1.114472957091771E-002  1.128491301175897E-002 
 1.142685974321766E-002  1.157059194475934E-002  1.171613207483295E-002  1.186350287437991E-002 
 1.201272737038748E-002  1.216382887948675E-002  1.231683101159594E-002  1.247175767360948E-002 
 1.262863307313352E-002  1.278748172226838E-002  1.294832844143868E-002  1.311119836327153E-002 
 1.327611693652359E-002  1.344310993005745E-002  1.361220343686810E-002  1.378342387816000E-002 
 1.395679800747545E-002  1.413235291487491E-002  1.431011603116980E-002  1.449011513220873E-002 
 1.467237834321744E-002  1.485693414319344E-002  1.504381136935600E-002  1.523303922165189E-002 
 1.542464726731802E-002  1.561866544550136E-002  1.581512407193697E-002  1.601405384368496E-002 
 1.621548584392686E-002  1.641945154682254E-002  1.662598282242804E-002  1.683511194167536E-002 
 1.704687158141488E-002  1.726129482952113E-002  1.747841519006287E-002  1.769826658853816E-002 
 1.792088337717531E-002  1.814630034030047E-002  1.837455269977274E-002  1.860567612048767E-002 
 1.883970671594996E-002  1.907668105391629E-002  1.931663616210912E-002  1.955960953400228E-002 
 1.980563913467945E-002  2.005476340676631E-002  2.030702127643720E-002  2.056245215949750E-002 
 2.082109596754236E-002  2.108299311419299E-002  2.134818452141140E-002  2.161671162589448E-002 
 2.188861638554867E-002  2.216394128604582E-002  2.244272934746182E-002  2.272502413099844E-002 
 2.301086974578994E-002  2.330031085579521E-002  2.359339268677655E-002  2.389016103336634E-002 
 2.419066226622249E-002  2.449494333927401E-002  2.480305179705765E-002  2.511503578214679E-002 
 2.543094404267383E-002  2.575082593994719E-002  2.607473145616411E-002  2.640271120222053E-002 
 2.673481642561903E-002  2.707109901847644E-002  2.741161152563206E-002  2.775640715285790E-002 
 2.810553977517225E-002  2.845906394525763E-002  2.881703490198487E-002  2.917950857904426E-002 
 2.954654161368527E-002  2.991819135556638E-002  3.029451587571578E-002  3.067557397560543E-002 
 3.106142519633876E-002  3.145212982795392E-002  3.184774891884462E-002  3.224834428529857E-002 
 3.265397852115687E-002  3.306471500759419E-002  3.348061792302208E-002  3.390175225311734E-002 
 3.432818380097575E-002  3.475997919739428E-002  3.519720591128221E-002  3.563993226020297E-002 
 3.608822742104947E-002  3.654216144085250E-002  3.700180524772628E-002  3.746723066195084E-002 
 3.793851040719393E-002  3.841571812187471E-002  3.889892837066935E-002  3.938821665616240E-002 
 3.988365943064399E-002  4.038533410805548E-002  4.089331907608602E-002  4.140769370842024E-002 
 4.192853837714101E-002  4.245593446528755E-002  4.298996437957149E-002  4.353071156325358E-002 
 4.407826050918127E-002  4.463269677299143E-002  4.519410698647838E-002  4.576257887113000E-002 
 4.633820125183502E-002  4.692106407076135E-002  4.751125840141040E-002  4.810887646284715E-002 
 4.871401163410940E-002  4.932675846879899E-002  4.994721270985533E-002  5.057547130451596E-002 
 5.121163241946462E-002  5.185579545616959E-002  5.250806106641612E-002  5.316853116803268E-002 
 5.383730896081645E-002  5.451449894265829E-002  5.520020692587045E-002  5.589454005372056E-002 
 5.659760681717229E-002  5.730951707183794E-002  5.803038205514326E-002  5.876031440370833E-002 
 5.949942817094788E-002  6.024783884489156E-002  6.100566336622994E-002  6.177302014658639E-002 
 6.255002908701882E-002  6.333681159675521E-002  6.413349061216324E-002  6.494019061596001E-002 
 6.575703765666251E-002  6.658415936828246E-002  6.742168499027035E-002  6.826974538770833E-002 
 6.912847307175901E-002  6.999800222037025E-002  7.087846869924035E-002  7.177001008304820E-002 
 7.267276567694861E-002  7.358687653833992E-002  7.451248549890416E-002  7.544973718692430E-002 
 7.639877804988371E-002  7.735975637734779E-002  7.833282232413549E-002  7.931812793378083E-002 
 8.031582716228967E-002  8.132607590219658E-002  8.234903200692227E-002  8.338485531543943E-002 
 8.443370767724759E-002  8.549575297766186E-002  8.657115716342152E-002  8.766008826861821E-002 
 8.876271644095268E-002  8.987921396832037E-002  9.100975530573115E-002  9.215451710256936E-002 
 9.331367823019453E-002  9.448741980989132E-002  9.567592524116970E-002  9.687938023042106E-002 
 9.809797281993621E-002  9.933189341728617E-002  1.005813348250749E-001  1.018464922710645E-001 
 1.031275634386796E-001  1.044247484978969E-001  1.057382501365205E-001  1.070682735918541E-001 
 1.084150266827688E-001  1.097787198421745E-001  1.111595661499023E-001  1.125577813659967E-001 
 1.139735839644301E-001  1.154071951672393E-001  1.168588389790908E-001  1.183287422222842E-001 
 1.198171345721914E-001  1.213242485931453E-001  1.228503197747781E-001  1.243955865688165E-001 
 1.259602904263413E-001  1.275446758355132E-001  1.291489903597760E-001  1.307734846765385E-001 
 1.324184126163421E-001  1.340840312025246E-001  1.357706006913784E-001  1.374783846128176E-001 
 1.392076498115548E-001  1.409586664887949E-001  1.427317082444568E-001  1.445270521199216E-001 
 1.463449786413229E-001  1.481857718633779E-001  1.500497194137728E-001  1.519371125381049E-001 
 1.538482461453892E-001  1.557834188541407E-001  1.577429330390318E-001  1.597270948781407E-001 
 1.617362144007918E-001  1.637706055359977E-001  1.658305861615128E-001  1.679164781535003E-001 
 1.700286074368280E-001  1.721673040359938E-001  1.743329021266921E-001  1.765257400880311E-001 
 1.787461605554028E-001  1.809945104740233E-001  1.832711411531418E-001  1.855764083209333E-001 
 1.879106721800833E-001  1.902742974640684E-001  1.926676534941483E-001  1.950911142370723E-001 
 1.975450583635116E-001  2.000298693072290E-001  2.025459353249893E-001  2.050936495572270E-001 
 2.076734100894747E-001  2.102856200145632E-001  2.129306874956089E-001  2.156090258297862E-001 
 2.183210535129094E-001  2.210671943048221E-001  2.238478772956091E-001  2.266635369726460E-001 
 2.295146132884851E-001  2.324015517296016E-001  2.353248033860008E-001  2.382848250217008E-001 
 2.412820791461051E-001  2.443170340862677E-001  2.473901640600731E-001  2.505019492503326E-001 
 2.536528758798122E-001  2.568434362872092E-001  2.600741290040777E-001  2.633454588327280E-001 
 2.666579369251019E-001  2.700120808626397E-001  2.734084147371565E-001  2.768474692327293E-001 
 2.803297817086202E-001  2.838558962832390E-001  2.874263639191609E-001  2.910417425092191E-001 
 2.947025969636729E-001  2.984094992984793E-001  3.021630287246705E-001  3.059637717388549E-001 
 3.098123222148622E-001  3.137092814965330E-001  3.176552584916841E-001  3.216508697672498E-001 
 3.256967396456198E-001  3.297935003021952E-001  3.339417918641623E-001  3.381422625105180E-001 
 3.423955685733475E-001  3.467023746403750E-001  3.510633536588122E-001  3.554791870405019E-001 
 3.599505647683947E-001  3.644781855043583E-001  3.690627566983430E-001  3.737049946989264E-001 
 3.784056248652397E-001  3.831653816803102E-001  3.879850088658251E-001  3.928652594983362E-001 
 3.978068961269352E-001  4.028106908923977E-001  4.078774256478369E-001  4.130078920808674E-001 
 4.182028918373059E-001  4.234632366464350E-001  4.287897484478321E-001  4.341832595198036E-001 
 4.396446126094286E-001  4.451746610642370E-001  4.507742689655523E-001  4.564443112635001E-001 
 4.621856739137259E-001  4.679992540158256E-001  4.738859599535164E-001  4.798467115365792E-001 
 4.858824401445745E-001  4.919940888723779E-001  4.981826126775382E-001  5.044489785294889E-001 
 5.107941655606451E-001  5.172191652193880E-001  5.237249814249871E-001  5.303126307244616E-001 
 5.369831424514151E-001  5.437375588868784E-001  5.505769354221595E-001  5.575023407237577E-001 
 5.645148569003423E-001  5.716155796718310E-001  5.788056185406054E-001  5.860860969648648E-001 
 5.934581525341764E-001  6.009229371472227E-001  6.084816171917843E-001  6.161353737269986E-001 
 6.238854026678939E-001  6.317329149722607E-001  6.396791368298637E-001  6.477253098540325E-001 
 6.558726912756745E-001  6.641225541397106E-001  6.724761875039987E-001  6.809348966407491E-001 
 6.895000032404711E-001  6.981728456184995E-001  7.069547789240980E-001  7.158471753522141E-001 
 7.248514243578827E-001  7.339689328733278E-001  7.432011255278068E-001  7.525494448702027E-001 
 7.620153515944332E-001  7.716003247676840E-001  7.813058620615116E-001  7.911334799858668E-001 
 8.010847141260418E-001  8.111611193826186E-001  8.213642702144205E-001  8.316957608845206E-001 
 8.421572057093584E-001  8.527502393109690E-001  8.634765168724058E-001  8.743377143963621E-001 
 8.853355289670450E-001  8.964716790153600E-001  9.077479045874052E-001  9.191659676163696E-001 
 9.307276521978333E-001  9.424347648685315E-001  9.542891348886404E-001  9.662926145275905E-001 
 9.784470793534980E-001  9.907544285262222E-001  1.003216585094107E+000  1.015835496294476E+000 
 1.028613133857871E+000  1.041551494316162E+000  1.054652599314494E+000  1.067918495927175E+000 
 1.081351256977543E+000  1.094952981361838E+000  1.108725794377170E+000  1.122671848053596E+000 
 1.136793321490372E+000  1.151092421196457E+000  1.165571381435267E+000  1.180232464573800E+000 
 1.195077961436126E+000  1.210110191661330E+000  1.225331504065971E+000  1.240744277011077E+000 
 1.256350918773779E+000  1.272153867923608E+000  1.288155593703515E+000  1.304358596415713E+000 
 1.320765407812337E+000  1.337378591491049E+000  1.354200743295603E+000  1.371234491721437E+000 
 1.388482498326403E+000  1.405947458146619E+000  1.423632100117594E+000  1.441539187500616E+000 
 1.459671518314517E+000  1.478031925772882E+000  1.496623278726725E+000  1.515448482112774E+000 
 1.534510477407359E+000  1.553812243086022E+000  1.573356795088925E+000  1.593147187292078E+000 
 1.613186511984528E+000  1.633477900351533E+000  1.654024522963800E+000  1.674829590272923E+000 
 1.695896353112990E+000  1.717228103208559E+000  1.738828173688986E+000  1.760699939609221E+000 
 1.782846818477196E+000  1.805272270787784E+000  1.827979800563537E+000  1.850972955902186E+000 
 1.874255329531025E+000  1.897830559368309E+000  1.921702329091657E+000  1.945874368713659E+000 
 1.970350455164689E+000  1.995134412883043E+000  2.020230114412547E+000  2.045641481007614E+000 
 2.071372483245978E+000  2.097427141649093E+000  2.123809527310336E+000  2.150523762531150E+000 
 2.177574021465129E+000  2.204964530770270E+000  2.232699570269384E+000  2.260783473618811E+000 
 2.289220628985595E+000  2.318015479733109E+000  2.347172525115371E+000  2.376696320980046E+000 
 2.406591480480295E+000  2.436862674795623E+000  2.467514633861719E+000  2.498552147109553E+000 
 2.529980064213721E+000  2.561803295850202E+000  2.594026814463694E+000  2.626655655044530E+000 
 2.659694915915439E+000  2.693149759528155E+000  2.727025413270050E+000  2.761327170280949E+000 
 2.796060390280163E+000  2.831230500403987E+000  2.866842996053688E+000  2.902903441754154E+000 
 2.939417472023402E+000  2.976390792252941E+000  3.013829179599282E+000  3.051738483886625E+000 
 3.090124628520880E+000  3.128993611415254E+000  3.168351505927393E+000  3.208204461808394E+000 
 3.248558706163702E+000  3.289420544426085E+000  3.330796361340919E+000  3.372692621963765E+000 
 3.415115872670589E+000  3.458072742180631E+000  3.501569942592136E+000  3.545614270431177E+000 
 3.590212607713575E+000  3.635371923020272E+000  3.681099272586169E+000  3.727401801402656E+000 
 3.774286744334077E+000  3.821761427248139E+000  3.869833268160642E+000  3.918509778394540E+000 
 3.967798563753575E+000  4.017707325710752E+000  4.068243862611654E+000  4.119416070892995E+000 
 4.171231946316437E+000  4.223699585217922E+000  4.276827185772787E+000  4.330623049276695E+000 
 4.385095581442773E+000  4.440253293715005E+000  4.496104804598139E+000  4.552658841004394E+000 
 4.609924239617007E+000  4.667909948271021E+000  4.726625027351398E+000  4.786078651208684E+000 
 4.846280109592582E+000  4.907238809103430E+000  4.968964274662054E+000  5.031466150998039E+000 
 5.094754204156707E+000  5.158838323025140E+000  5.223728520877276E+000  5.289434936938557E+000 
 5.355967837970183E+000  5.423337619873283E+000  5.491554809313364E+000  5.560630065365046E+000 
 5.630574181177630E+000  5.701398085661526E+000  5.773112845195882E+000  5.845729665357798E+000 
 5.919259892673146E+000  5.993715016389552E+000  6.069106670271587E+000  6.145446634418534E+000 
 6.222746837105129E+000  6.301019356645287E+000  6.380276423279444E+000  6.460530421085524E+000 
 6.541793889913937E+000  6.624079527347044E+000  6.707400190683083E+000  6.791768898945227E+000 
 6.877198834915805E+000  6.963703347196097E+000  7.051295952292163E+000  7.139990336726737E+000 
 7.229800359177846E+000  7.320740052644233E+000  7.412823626637994E+000  7.506065469404938E+000 
 7.600480150172672E+000  7.696082421427167E+000  7.792887221217825E+000  7.890909675491536E+000 
 7.990165100456238E+000  8.090669004973989E+000  8.192437092984362E+000  8.295485265958170E+000 
 8.399829625382065E+000  8.505486475274529E+000  8.612472324733284E+000  8.720803890514988E+000 