<UPF version="2.0.1">
  <PP_INFO>
    Generated using "atomic" code by A. Dal Corso  v.7.2
    Author: ADC
    Generation date: 31May2024
    Pseudopotential type: PAW
    Element: Ag
    Functional:  SLA  PW   BEEX BEEC
    Suggested minimum cutoff for wavefunctions:  46. Ry
    Suggested minimum cutoff for charge density: 182. Ry
    The Pseudo was generated with a Scalar-Relativistic Calculation
    Local Potential by smoothing AE potential with Bessel fncs, cutoff radius:   2.4000
    Valence configuration: 
    nl pn  l   occ       Rcut    Rcut US       E pseu
    5S  1  0  1.50      1.600      2.200    -0.381781
    5P  2  1  0.00      1.600      2.200    -0.094121
    4D  3  2  9.50      1.600      1.700    -0.697138
    Generation configuration:
    5S  1  0  1.50      1.600      2.200    -0.381780
    5S  1  0  0.00      1.600      2.200     6.500000
    5P  2  1  0.00      1.600      2.200    -0.094122
    5P  2  1  0.00      1.600      2.200     6.000000
    4D  3  2  9.50      1.600      1.700    -0.697136
    4D  3  2  0.00      1.600      1.700     0.030000
    Pseudization used: troullier-martins
    <PP_INPUTFILE>
@input
title='Ag',
zed=47.,
rel=1,
config='[Kr] 5s1.5 5p0 4d9.5',
iswitch=3,
dft='SLA-PW-BEEX-BEEC'
/
@inputp
lpaw=.true.,
pseudotype=3,
file_pseudopw='Ag.beef-n-kjpaw_psl.1.0.0.UPF',
author='ADC',
lloc=-1,
rcloc=2.4,
which_augfun='PSQ',
rmatch_augfun_nc=.true.,
nlcc=.true.,
new_core_ps=.true.,
rcore=1.8,
tm=.true.
/
6
5S  1  0  1.50  0.00  1.60  2.20  0.0
5S  1  0  0.00  6.50  1.60  2.20  0.0
5P  2  1  0.00  0.00  1.60  2.20  0.0
5P  2  1  0.00  6.00  1.60  2.20  0.0
4D  3  2  9.50  0.00  1.60  1.70  0.0
4D  3  2  0.00  0.03  1.60  1.70  0.0
    </PP_INPUTFILE>
  </PP_INFO>
    <!-- END OF HUMAN READABLE SECTION -->
  <PP_HEADER generated="Generated using 'atomic' code by A. Dal Corso  v.7.2" author="ADC" date="31May2024" comment="" element="Ag" pseudo_type="PAW" relativistic="scalar" is_ultrasoft="true" is_paw="true" is_coulomb="false" has_so="false" has_wfc="true" has_gipaw="false" paw_as_gipaw="false" core_correction="true" functional=" SLA  PW   BEEX BEEC" z_valence="11.0000000000000" total_psenergy="-365.906146025743" wfc_cutoff="45.5138980453351" rho_cutoff="182.055592181341" l_max="2" l_max_rho="4" l_local="-1" mesh_size="1237" number_of_wfc="3" number_of_proj="6"/>
  <PP_MESH mesh="1237" dx="1.250000000000000E-002" xmin="-7.00000000000000" rmax="100.000000000000" zmesh="47.0000000000000">
    <PP_R>
   1.940174394796843E-05   1.964578784402175E-05   1.989290143439536E-05
   2.014312333109051E-05   2.039649263178766E-05   2.065304892595551E-05
   2.091283230103699E-05   2.117588334871301E-05   2.144224317124490E-05
   2.171195338789690E-05   2.198505614143909E-05   2.226159410473231E-05
   2.254161048739596E-05   2.282514904255951E-05   2.311225407369910E-05
   2.340297044155996E-05   2.369734357116603E-05   2.399541945891771E-05
   2.429724467977888E-05   2.460286639455442E-05   2.491233235725903E-05
   2.522569092257900E-05   2.554299105342768E-05   2.586428232859606E-05
   2.618961495049960E-05   2.651903975302233E-05   2.685260820945988E-05
   2.719037244056222E-05   2.753238522267762E-05   2.787869999599915E-05
   2.822937087291471E-05   2.858445264646227E-05   2.894400079889136E-05
   2.930807151033228E-05   2.967672166757444E-05   3.005000887295493E-05
   3.042799145335903E-05   3.081072846933395E-05   3.119827972431709E-05
   3.159070577398057E-05   3.198806793569303E-05   3.239042829810067E-05
   3.279784973082873E-05   3.321039589430494E-05   3.362813124970674E-05
   3.405112106903328E-05   3.447943144530440E-05   3.491312930288779E-05
   3.535228240795604E-05   3.579695937907534E-05   3.624722969792711E-05
   3.670316372016473E-05   3.716483268640680E-05   3.763230873336852E-05
   3.810566490513340E-05   3.858497516456628E-05   3.907031440487037E-05
   3.956175846128938E-05   4.005938412295696E-05   4.056326914489525E-05
   4.107349226016403E-05   4.159013319216313E-05   4.211327266708929E-05
   4.264299242654977E-05   4.317937524033476E-05   4.372250491935019E-05
   4.427246632871339E-05   4.482934540101349E-05   4.539322914973847E-05
   4.596420568287137E-05   4.654236421665713E-05   4.712779508954292E-05
   4.772058977629369E-05   4.832084090228525E-05   4.892864225797736E-05
   4.954408881356838E-05   5.016727673383474E-05   5.079830339315688E-05
   5.143726739073412E-05   5.208426856599113E-05   5.273940801417784E-05
   5.340278810216593E-05   5.407451248444380E-05   5.475468611931276E-05
   5.544341528528720E-05   5.614080759770046E-05   5.684697202552022E-05
   5.756201890837504E-05   5.828605997379507E-05   5.901920835466997E-05
   5.976157860692581E-05   6.051328672742484E-05   6.127445017209028E-05
   6.204518787425888E-05   6.282562026326482E-05   6.361586928325660E-05
   6.441605841225140E-05   6.522631268142858E-05   6.604675869466614E-05
   6.687752464832299E-05   6.771874035126951E-05   6.857053724517077E-05
   6.943304842502443E-05   7.030640865995706E-05   7.119075441428239E-05
   7.208622386882365E-05   7.299295694250500E-05   7.391109531421391E-05
   7.484078244493890E-05   7.578216360018574E-05   7.673538587267511E-05
   7.770059820532645E-05   7.867795141453047E-05   7.966759821371448E-05
   8.066969323720443E-05   8.168439306438646E-05   8.271185624417299E-05
   8.375224331977624E-05   8.480571685379342E-05   8.587244145360763E-05
   8.695258379710780E-05   8.804631265873270E-05   8.915379893584212E-05
   9.027521567542000E-05   9.141073810111362E-05   9.256054364061211E-05
   9.372481195337034E-05   9.490372495868089E-05   9.609746686409930E-05
   9.730622419422709E-05   9.853018581985629E-05   9.976954298748108E-05
   1.010244893491804E-04   1.022952209928764E-04   1.035819364729737E-04
   1.048848368413841E-04   1.062041256789408E-04   1.075400091272088E-04
   1.088926959206948E-04   1.102623974194622E-04   1.116493276421571E-04
   1.130537032994484E-04   1.144757438278898E-04   1.159156714242070E-04
   1.173737110800164E-04   1.188500906169808E-04   1.203450407224066E-04
   1.218587949852890E-04   1.233915899328116E-04   1.249436650673032E-04
   1.265152629036616E-04   1.281066290072459E-04   1.297180120322476E-04
   1.313496637605427E-04   1.330018391410332E-04   1.346747963294840E-04
   1.363687967288592E-04   1.380841050301678E-04   1.398209892538217E-04
   1.415797207915143E-04   1.433605744486270E-04   1.451638284871665E-04
   1.469897646692454E-04   1.488386683011067E-04   1.507108282777046E-04
   1.526065371278447E-04   1.545260910598913E-04   1.564697900080518E-04
   1.584379376792414E-04   1.604308416005376E-04   1.624488131672332E-04
   1.644921676914909E-04   1.665612244516122E-04   1.686563067419256E-04
   1.707777419233011E-04   1.729258614743024E-04   1.751010010429794E-04
   1.773035004993151E-04   1.795337039883306E-04   1.817919599838583E-04
   1.840786213429922E-04   1.863940453612219E-04   1.887385938282608E-04
   1.911126330845771E-04   1.935165340786344E-04   1.959506724248540E-04
   1.984154284623048E-04   2.009111873141322E-04   2.034383389477343E-04
   2.059972782356954E-04   2.085884050174857E-04   2.112121241619364E-04
   2.138688456305018E-04   2.165589845413165E-04   2.192829612340583E-04
   2.220412013356277E-04   2.248341358266522E-04   2.276622011088282E-04
   2.305258390731098E-04   2.334254971687548E-04   2.363616284732406E-04
   2.393346917630567E-04   2.423451515853910E-04   2.453934783307156E-04
   2.484801483062860E-04   2.516056438105663E-04   2.547704532085877E-04
   2.579750710082574E-04   2.612199979376266E-04   2.645057410231294E-04
   2.678328136688085E-04   2.712017357365334E-04   2.746130336272313E-04
   2.780672403631381E-04   2.815648956710836E-04   2.851065460668261E-04
   2.886927449404454E-04   2.923240526428116E-04   2.960010365731411E-04
   2.997242712676537E-04   3.034943384893458E-04   3.073118273188910E-04
   3.111773342466856E-04   3.150914632660514E-04   3.190548259676107E-04
   3.230680416348499E-04   3.271317373408815E-04   3.312465480464275E-04
   3.354131166990319E-04   3.396320943335236E-04   3.439041401737420E-04
   3.482299217355410E-04   3.526101149310905E-04   3.570454041744888E-04
   3.615364824887035E-04   3.660840516138592E-04   3.706888221168833E-04
   3.753515135025354E-04   3.800728543258309E-04   3.848535823058787E-04
   3.896944444411527E-04   3.945961971262103E-04   3.995596062698810E-04
   4.045854474149416E-04   4.096745058592964E-04   4.148275767786807E-04
   4.200454653509102E-04   4.253289868816900E-04   4.306789669320084E-04
   4.360962414471331E-04   4.415816568872286E-04   4.471360703596177E-04
   4.527603497527059E-04   4.584553738715909E-04   4.642220325753781E-04
   4.700612269162222E-04   4.759738692801192E-04   4.819608835294675E-04
   4.880232051474240E-04   4.941617813840761E-04   5.003775714044491E-04
   5.066715464383804E-04   5.130446899322739E-04   5.194979977027667E-04
   5.260324780923276E-04   5.326491521268116E-04   5.393490536749989E-04
   5.461332296101369E-04   5.530027399735180E-04   5.599586581401131E-04
   5.670020709862869E-04   5.741340790596274E-04   5.813557967509057E-04
   5.886683524682038E-04   5.960728888132303E-04   6.035705627598533E-04
   6.111625458348816E-04   6.188500243011166E-04   6.266341993427083E-04
   6.345162872528449E-04   6.424975196237979E-04   6.505791435393638E-04
   6.587624217697212E-04   6.670486329687423E-04   6.754390718737862E-04
   6.839350495080014E-04   6.925378933851794E-04   7.012489477171780E-04
   7.100695736239591E-04   7.190011493462672E-04   7.280450704609794E-04
   7.372027500991708E-04   7.464756191669157E-04   7.558651265688716E-04
   7.653727394346738E-04   7.749999433481752E-04   7.847482425795747E-04
   7.946191603204600E-04   8.046142389218102E-04   8.147350401349928E-04
   8.249831453557875E-04   8.353601558714855E-04   8.458676931110919E-04
   8.565073988986777E-04   8.672809357099197E-04   8.781899869318628E-04
   8.892362571259557E-04   9.004214722943897E-04   9.117473801497912E-04
   9.232157503883059E-04   9.348283749661153E-04   9.465870683794366E-04
   9.584936679480387E-04   9.705500341023278E-04   9.827580506740451E-04
   9.951196251906165E-04   1.007636689173211E-03   1.020311198438542E-03
   1.033145133404467E-03   1.046140499399438E-03   1.059299326975829E-03
   1.072623672227221E-03   1.086115617109668E-03   1.099777269767008E-03
   1.113610764860264E-03   1.127618263901188E-03   1.141801955590003E-03
   1.156164056157394E-03   1.170706809710792E-03   1.185432488585030E-03
   1.200343393697391E-03   1.215441854907134E-03   1.230730231379542E-03
   1.246210911954543E-03   1.261886315519973E-03   1.277758891389531E-03
   1.293831119685489E-03   1.310105511726218E-03   1.326584610418584E-03
   1.343270990655285E-03   1.360167259717183E-03   1.377276057680693E-03
   1.394600057830306E-03   1.412141967076289E-03   1.429904526377655E-03
   1.447890511170430E-03   1.466102731801331E-03   1.484544033966887E-03
   1.503217299158077E-03   1.522125445110580E-03   1.541271426260670E-03
   1.560658234206854E-03   1.580288898177317E-03   1.600166485503243E-03
   1.620294102098093E-03   1.640674892942909E-03   1.661312042577727E-03
   1.682208775599164E-03   1.703368357164267E-03   1.724794093500708E-03
   1.746489332423379E-03   1.768457463857501E-03   1.790701920368307E-03
   1.813226177697379E-03   1.836033755305756E-03   1.859128216923839E-03
   1.882513171108241E-03   1.906192271805632E-03   1.930169218923670E-03
   1.954447758909126E-03   1.979031685333267E-03   2.003924839484611E-03
   2.029131110969141E-03   2.054654438318060E-03   2.080498809603193E-03
   2.106668263060135E-03   2.133166887719229E-03   2.159998824044491E-03
   2.187168264580562E-03   2.214679454607802E-03   2.242536692805625E-03
   2.270744331924175E-03   2.299306779464454E-03   2.328228498366999E-03
   2.357514007709232E-03   2.387167883411570E-03   2.417194758952421E-03
   2.447599326092179E-03   2.478386335606318E-03   2.509560598027713E-03
   2.541126984398291E-03   2.573090427030142E-03   2.605455920276212E-03
   2.638228521310665E-03   2.671413350919091E-03   2.705015594298631E-03
   2.739040501868175E-03   2.773493390088760E-03   2.808379642294260E-03
   2.843704709532563E-03   2.879474111417292E-03   2.915693436990266E-03
   2.952368345594794E-03   2.989504567759961E-03   3.027107906096034E-03
   3.065184236201134E-03   3.103739507579307E-03   3.142779744570146E-03
   3.182311047290108E-03   3.222339592585672E-03   3.262871634998479E-03
   3.303913507742617E-03   3.345471623694206E-03   3.387552476393411E-03
   3.430162641059081E-03   3.473308775616137E-03   3.516997621735884E-03
   3.561236005889416E-03   3.606030840414258E-03   3.651389124594442E-03
   3.697317945754152E-03   3.743824480365140E-03   3.790915995168053E-03
   3.838599848307890E-03   3.886883490483717E-03   3.935774466112858E-03
   3.985280414509726E-03   4.035409071079475E-03   4.086168268526685E-03
   4.137565938079225E-03   4.189610110727534E-03   4.242308918479473E-03
   4.295670595630967E-03   4.349703480052640E-03   4.404416014492610E-03
   4.459816747895699E-03   4.515914336739216E-03   4.572717546385546E-03
   4.630235252451765E-03   4.688476442196467E-03   4.747450215924040E-03
   4.807165788406616E-03   4.867632490323883E-03   4.928859769721040E-03
   4.990857193485057E-03   5.053634448839536E-03   5.117201344858346E-03
   5.181567813998315E-03   5.246743913651203E-03   5.312739827715183E-03
   5.379565868186096E-03   5.447232476768727E-03   5.515750226508332E-03
   5.585129823442709E-03   5.655382108275035E-03   5.726518058067743E-03
   5.798548787957717E-03   5.871485552893047E-03   5.945339749391647E-03
   6.020122917321977E-03   6.095846741706173E-03   6.172523054545860E-03
   6.250163836670914E-03   6.328781219611504E-03   6.408387487493663E-03
   6.488995078958709E-03   6.570616589106808E-03   6.653264771464976E-03
   6.736952539979858E-03   6.821692971035547E-03   6.907499305496804E-03
   6.994384950777963E-03   7.082363482937865E-03   7.171448648801158E-03
   7.261654368106251E-03   7.352994735680310E-03   7.445484023641607E-03
   7.539136683629550E-03   7.633967349062802E-03   7.729990837425774E-03
   7.827222152583881E-03   7.925676487127938E-03   8.025369224748023E-03
   8.126315942637213E-03   8.228532413925561E-03   8.332034610144663E-03
   8.436838703723255E-03   8.542961070514186E-03   8.650418292353175E-03
   8.759227159649757E-03   8.869404674010820E-03   8.980968050897141E-03
   9.093934722313337E-03   9.208322339531647E-03   9.324148775849988E-03
   9.441432129384681E-03   9.560190725898336E-03   9.680443121663270E-03
   9.802208106360979E-03   9.925504706018053E-03   1.005035218597904E-02
   1.017677005391669E-02   1.030477806288006E-02   1.043439621438099E-02
   1.056564476151936E-02   1.069854421214768E-02   1.083311533207552E-02
   1.096937914831413E-02   1.110735695236205E-02   1.124707030353186E-02
   1.138854103231894E-02   1.153179124381250E-02   1.167684332114950E-02
   1.182371992901216E-02   1.197244401716928E-02   1.212303882406220E-02
   1.227552788043589E-02   1.242993501301566E-02   1.258628434823011E-02
   1.274460031598097E-02   1.290490765346029E-02   1.306723140901570E-02
   1.323159694606426E-02   1.339802994705554E-02   1.356655641748454E-02
   1.373720268995515E-02   1.390999542829463E-02   1.408496163171988E-02
   1.426212863905616E-02   1.444152413300882E-02   1.462317614448877E-02
   1.480711305699239E-02   1.499336361103646E-02   1.518195690864899E-02
   1.537292241791643E-02   1.556628997758813E-02   1.576208980173869E-02
   1.596035248448898E-02   1.616110900478657E-02   1.636439073124619E-02
   1.657022942705117E-02   1.677865725491653E-02   1.698970678211441E-02
   1.720341098556282E-02   1.741980325697834E-02   1.763891740809363E-02
   1.786078767594059E-02   1.808544872819997E-02   1.831293566861826E-02
   1.854328404249273E-02   1.877652984222544E-02   1.901270951294715E-02
   1.925185995821192E-02   1.949401854576336E-02   1.973922311337347E-02
   1.998751197475481E-02   2.023892392554711E-02   2.049349824937919E-02
   2.075127472400709E-02   2.101229362752940E-02   2.127659574468086E-02
   2.154422237320500E-02   2.181521533030701E-02   2.208961695918778E-02
   2.236747013566010E-02   2.264881827484808E-02   2.293370533797089E-02
   2.322217583921175E-02   2.351427485267336E-02   2.381004801942087E-02
   2.410954155461334E-02   2.441280225472495E-02   2.471987750485709E-02
   2.503081528614236E-02   2.534566418324167E-02   2.566447339193577E-02
   2.598729272681213E-02   2.631417262904862E-02   2.664516417429500E-02
   2.698031908065361E-02   2.731968971676047E-02   2.766332910996790E-02
   2.801129095463026E-02   2.836362962049369E-02   2.872040016119157E-02
   2.908165832284675E-02   2.944746055278195E-02   2.981786400833987E-02
   3.019292656581399E-02   3.057270682949202E-02   3.095726414081281E-02
   3.134665858763864E-02   3.174095101364406E-02   3.214020302782283E-02
   3.254447701411445E-02   3.295383614115178E-02   3.336834437213126E-02
   3.378806647480732E-02   3.421306803161241E-02   3.464341544990448E-02
   3.507917597234317E-02   3.552041768739667E-02   3.596720953998069E-02
   3.641962134223117E-02   3.687772378441268E-02   3.734158844596382E-02
   3.781128780668169E-02   3.828689525804701E-02   3.876848511469170E-02
   3.925613262601065E-02   3.974991398791964E-02   4.024990635476107E-02
   4.075618785135951E-02   4.126883758522883E-02   4.178793565893293E-02
   4.231356318260197E-02   4.284580228660591E-02   4.338473613438758E-02
   4.393044893545717E-02   4.448302595855014E-02   4.504255354495055E-02
   4.560911912198213E-02   4.618281121666901E-02   4.676371946956814E-02
   4.735193464877593E-02   4.794754866411084E-02   4.855065458147456E-02
   4.916134663739372E-02   4.977972025374451E-02   5.040587205266258E-02
   5.103989987164041E-02   5.168190277881466E-02   5.233198108844576E-02
   5.299023637659216E-02   5.365677149698190E-02   5.433169059708358E-02
   5.501509913437973E-02   5.570710389284473E-02   5.640781299962996E-02
   5.711733594195897E-02   5.783578358423503E-02   5.856326818536395E-02
   5.929990341629472E-02   6.004580437778088E-02   6.080108761836522E-02
   6.156587115259068E-02   6.234027447944048E-02   6.312441860100997E-02
   6.391842604141350E-02   6.472242086592904E-02   6.553652870038368E-02
   6.636087675078284E-02   6.719559382318657E-02   6.804081034383569E-02
   6.889665837953111E-02   6.976327165826969E-02   7.064078559013934E-02
   7.152933728847724E-02   7.242906559129406E-02   7.334011108296758E-02
   7.426261611620942E-02   7.519672483430789E-02   7.614258319365065E-02
   7.710033898653072E-02   7.807014186423929E-02   7.905214336044905E-02
   8.004649691489174E-02   8.105335789733324E-02   8.207288363185056E-02
   8.310523342141392E-02   8.415056857277828E-02   8.520905242168779E-02
   8.628085035839737E-02   8.736612985351520E-02   8.846506048417042E-02
   8.957781396050984E-02   9.070456415252807E-02   9.184548711723503E-02
   9.300076112616511E-02   9.417056669323268E-02   9.535508660293759E-02
   9.655450593892563E-02   9.776901211290831E-02   9.899879489394624E-02
   1.002440464381009E-01   1.015049613184597E-01   1.027817365555379E-01
   1.040745716480640E-01   1.053836686041514E-01   1.067092319728630E-01
   1.080514688761720E-01   1.094105890413253E-01   1.107868048336139E-01
   1.121803312895552E-01   1.135913861504932E-01   1.150201898966206E-01
   1.164669657814298E-01   1.179319398665963E-01   1.194153410573013E-01
   1.209174011379989E-01   1.224383548086326E-01   1.239784397213080E-01
   1.255378965174259E-01   1.271169688652836E-01   1.287159034981478E-01
   1.303349502528083E-01   1.319743621086142E-01   1.336343952270035E-01
   1.353153089915284E-01   1.370173660483843E-01   1.387408323474492E-01
   1.404859771838389E-01   1.422530732399845E-01   1.440423966282400E-01
   1.458542269340251E-01   1.476888472595115E-01   1.495465442678574E-01
   1.514276082280000E-01   1.533323330600100E-01   1.552610163810178E-01
   1.572139595517160E-01   1.591914677234486E-01   1.611938498858904E-01
   1.632214189153284E-01   1.652744916235485E-01   1.673533888073382E-01
   1.694584352986123E-01   1.715899600151675E-01   1.737482960120778E-01
   1.759337805337335E-01   1.781467550665376E-01   1.803875653922634E-01
   1.826565616420829E-01   1.849540983512768E-01   1.872805345146301E-01
   1.896362336425264E-01   1.920215638177474E-01   1.944368977529857E-01
   1.968826128490830E-01   1.993590912539986E-01   2.018667199225219E-01
   2.044058906767342E-01   2.069770002672316E-01   2.095804504351189E-01
   2.122166479747814E-01   2.148860047974480E-01   2.175889379955533E-01
   2.203258699079084E-01   2.230972281856932E-01   2.259034458592768E-01
   2.287449614058800E-01   2.316222188180882E-01   2.345356676732256E-01
   2.374857632036037E-01   2.404729663676508E-01   2.434977439219389E-01
   2.465605684941148E-01   2.496619186567492E-01   2.528022790021150E-01
   2.559821402179051E-01   2.592019991639038E-01   2.624623589496226E-01
   2.657637290129109E-01   2.691066251995581E-01   2.724915698438945E-01
   2.759190918504072E-01   2.793897267763835E-01   2.829040169155912E-01
   2.864625113830148E-01   2.900657662006546E-01   2.937143443844064E-01
   2.974088160320349E-01   3.011497584122512E-01   3.049377560549135E-01
   3.087734008423601E-01   3.126572921018925E-01   3.165900366994222E-01
   3.205722491342934E-01   3.246045516353014E-01   3.286875742579154E-01
   3.328219549827272E-01   3.370083398151367E-01   3.412473828862910E-01
   3.455397465552946E-01   3.498861015127034E-01   3.542871268853224E-01
   3.587435103423200E-01   3.632559482026779E-01   3.678251455439925E-01
   3.724518163126445E-01   3.771366834353543E-01   3.818804789321415E-01
   3.866839440307036E-01   3.915478292822352E-01   3.964728946787025E-01
   4.014599097715934E-01   4.065096537921629E-01   4.116229157731876E-01
   4.168004946722554E-01   4.220431994966028E-01   4.273518494295250E-01
   4.327272739583749E-01   4.381703130041710E-01   4.436818170528387E-01
   4.492626472880984E-01   4.549136757260288E-01   4.606357853513206E-01
   4.664298702552441E-01   4.722968357753542E-01   4.782375986369495E-01
   4.842530870963135E-01   4.903442410857572E-01   4.965120123604834E-01
   5.027573646473027E-01   5.090812737952159E-01   5.154847279278933E-01
   5.219687275980716E-01   5.285342859438904E-01   5.351824288471995E-01
   5.419141950938531E-01   5.487306365360228E-01   5.556328182565528E-01
   5.626218187353788E-01   5.696987300180454E-01   5.768646578863384E-01
   5.841207220310662E-01   5.914680562270145E-01   5.989078085100991E-01
   6.064411413567509E-01   6.140692318655540E-01   6.217932719411692E-01
   6.296144684805738E-01   6.375340435616388E-01   6.455532346340838E-01
   6.536732947128284E-01   6.618954925737803E-01   6.702211129520841E-01
   6.786514567428620E-01   6.871878412044828E-01   6.958316001643866E-01
   7.045840842274963E-01   7.134466609872543E-01   7.224207152393100E-01
   7.315076491978979E-01   7.407088827149372E-01   7.500258535018843E-01
   7.594600173543807E-01   7.690128483797223E-01   7.786858392271917E-01
   7.884805013212892E-01   7.983983650978940E-01   8.084409802433996E-01
   8.186099159368543E-01   8.289067610951486E-01   8.393331246212884E-01
   8.498906356557863E-01   8.605809438312215E-01   8.714057195299962E-01
   8.823666541453355E-01   8.934654603455746E-01   9.047038723417618E-01
   9.160836461586370E-01   9.276065599090113E-01   9.392744140716011E-01
   9.510890317723587E-01   9.630522590693359E-01   9.751659652411382E-01
   9.874320430789999E-01   9.998524091825385E-01   1.012429004259228E+00
   1.025163793427635E+00   1.038058766524477E+00   1.051115938415536E+00
   1.064337349310484E+00   1.077725065081674E+00   1.091281177586930E+00
   1.105007804996414E+00   1.118907092123585E+00   1.132981210760333E+00
   1.147232360016331E+00   1.161662766662644E+00   1.176274685479669E+00
   1.191070399609450E+00   1.206052220912422E+00   1.221222490328643E+00
   1.236583578243575E+00   1.252137884858455E+00   1.267887840565340E+00
   1.283835906326851E+00   1.299984574060710E+00   1.316336367029105E+00
   1.332893840232954E+00   1.349659580811135E+00   1.366636208444721E+00
   1.383826375766319E+00   1.401232768774548E+00   1.418858107253728E+00
   1.436705145198854E+00   1.454776671245918E+00   1.473075509107631E+00
   1.491604518014637E+00   1.510366593162275E+00   1.529364666162959E+00
   1.548601705504248E+00   1.568080717012678E+00   1.587804744323425E+00
   1.607776869355887E+00   1.628000212795232E+00   1.648477934580019E+00
   1.669213234395939E+00   1.690209352175775E+00   1.711469568605645E+00
   1.732997205637620E+00   1.754795627008788E+00   1.776868238766836E+00
   1.799218489802257E+00   1.821849872387248E+00   1.844765922721381E+00
   1.867970221484146E+00   1.891466394394433E+00   1.915258112777062E+00
   1.939349094136435E+00   1.963743102737402E+00   1.988443950193440E+00
   2.013455496062216E+00   2.038781648448659E+00   2.064426364615605E+00
   2.090393651602129E+00   2.116687566849657E+00   2.143312218835939E+00
   2.170271767717017E+00   2.197570425977252E+00   2.225212459087537E+00
   2.253202186171785E+00   2.281543980681799E+00   2.310242271080632E+00
   2.339301541534545E+00   2.368726332613667E+00   2.398521242001473E+00
   2.428690925213171E+00   2.459240096323144E+00   2.490173528701530E+00
   2.521496055760071E+00   2.553212571707350E+00   2.585328032313510E+00
   2.617847455684609E+00   2.650775923046712E+00   2.684118579539834E+00
   2.717880635021892E+00   2.752067364882744E+00   2.786684110868483E+00
   2.821736281916099E+00   2.857229354998628E+00   2.893168875980957E+00
   2.929560460486356E+00   2.966409794773943E+00   3.003722636627170E+00
   3.041504816253490E+00   3.079762237195340E+00   3.118500877252578E+00
   3.157726789416527E+00   3.197446102815766E+00   3.237665023673822E+00
   3.278389836278910E+00   3.319626903965853E+00   3.361382670110375E+00
   3.403663659135887E+00   3.446476477532944E+00   3.489827814891528E+00
   3.533724444946300E+00   3.578173226635013E+00   3.623181105170237E+00
   3.668755113124560E+00   3.714902371529453E+00   3.761630090987925E+00
   3.808945572801209E+00   3.856856210109604E+00   3.905369489047659E+00
   3.954492989913918E+00   4.004234388355330E+00   4.054601456566600E+00
   4.105602064504608E+00   4.157244181118105E+00   4.209535875592884E+00
   4.262485318612592E+00   4.316100783635426E+00   4.370390648186880E+00
   4.425363395168737E+00   4.481027614184565E+00   4.537392002881831E+00
   4.594465368310943E+00   4.652256628301365E+00   4.710774812855046E+00
   4.770029065557384E+00   4.830028645005917E+00   4.890782926257001E+00
   4.952301402290687E+00   5.014593685494013E+00   5.077669509162972E+00
   5.141538729023336E+00   5.206211324770651E+00   5.271697401629582E+00
   5.338007191932864E+00   5.405151056720150E+00   5.473139487356915E+00
   5.541983107173766E+00   5.611692673126367E+00   5.682279077476216E+00
   5.753753349492612E+00   5.826126657175969E+00   5.899410309002856E+00
   5.973615755692969E+00   6.048754591998318E+00   6.124838558514959E+00
   6.201879543517451E+00   6.279889584816437E+00   6.358880871639586E+00
   6.438865746536167E+00   6.519856707305624E+00   6.601866408950349E+00
   6.684907665653074E+00   6.768993452779108E+00   6.854136908903756E+00
   6.940351337865278E+00   7.027650210843594E+00   7.116047168465220E+00
   7.205556022934629E+00   7.296190760192434E+00   7.387965542100740E+00
   7.480894708655932E+00   7.574992780229350E+00   7.670274459836121E+00
   7.766754635432529E+00   7.864448382242317E+00   7.963370965112174E+00
   8.063537840896934E+00   8.164964660874729E+00   8.267667273192528E+00
   8.371661725342470E+00   8.476964266669276E+00   8.583591350909266E+00
   8.691559638761287E+00   8.800886000489974E+00   8.911587518561786E+00
   9.023681490314139E+00   9.137185430658176E+00   9.252117074815503E+00
   9.368494381089338E+00   9.486335533670578E+00   9.605658945479053E+00
   9.726483261040624E+00   9.848827359400417E+00   9.972710357072703E+00
   1.009815161102792E+01   1.022517072171722E+01   1.035378753613506E+01
   1.048402215092036E+01   1.061589491549664E+01   1.074942643525168E+01
   1.088463757475711E+01   1.102154946102856E+01   1.116018348682682E+01
   1.130056131400045E+01   1.144270487687057E+01   1.158663638565807E+01
   1.173237832995403E+01   1.187995348223374E+01   1.202938490141500E+01
   1.218069593646109E+01   1.233391023002907E+01   1.248905172216403E+01
   1.264614465403975E+01   1.280521357174643E+01   1.296628333012612E+01
   1.312937909665625E+01   1.329452635538216E+01   1.346175091089902E+01
   1.363107889238385E+01   1.380253675767826E+01   1.397615129742255E+01
   1.415194963924175E+01   1.432995925198446E+01   1.451020795001480E+01
   1.469272389755859E+01   1.487753561310395E+01   1.506467197385745E+01
   1.525416222025617E+01   1.544603596053662E+01   1.564032317536114E+01
   1.583705422250228E+01   1.603625984158642E+01   1.623797115889684E+01
   1.644221969223723E+01   1.664903735585651E+01   1.685845646543536E+01
   1.707050974313574E+01   1.728523032271370E+01   1.750265175469665E+01
   1.772280801162570E+01   1.794573349336390E+01   1.817146303247133E+01
   1.840003189964770E+01   1.863147580924353E+01   1.886583092484060E+01
   1.910313386490252E+01   1.934342170849645E+01   1.958673200108683E+01
   1.983310276040188E+01   2.008257248237402E+01   2.033518014715484E+01
   2.059096522520590E+01   2.084996768346605E+01   2.111222799159630E+01
   2.137778712830343E+01   2.164668658774279E+01   2.191896838600202E+01
   2.219467506766604E+01   2.247384971246479E+01   2.275653594200454E+01
   2.304277792658375E+01   2.333262039209488E+01   2.362610862701287E+01
   2.392328848947150E+01   2.422420641442893E+01   2.452890942092316E+01
   2.483744511941886E+01   2.514986171924664E+01   2.546620803613582E+01
   2.578653349984207E+01   2.611088816187078E+01   2.643932270329780E+01