<UPF version="2.0.1">
  <PP_INFO>
    Generated using "atomic" code by A. Dal Corso  v.7.2
    Author: ADC
    Generation date: 31May2024
    Pseudopotential type: USPP
    Element: At
    Functional: SLA-PW-BEEX-BEEC
    Suggested minimum cutoff for wavefunctions:  50. Ry
    Suggested minimum cutoff for charge density: 471. Ry
    The Pseudo was generated with a Scalar-Relativistic Calculation
    Local Potential by smoothing AE potential with Bessel fncs, cutoff radius:   1.9000
    Valence configuration: 
    nl pn  l   occ       Rcut    Rcut US       E pseu
    6S  1  0  2.00      1.600      1.700    -1.441913
    6P  2  1  5.00      1.800      2.000    -0.506598
    5D  3  2 10.00      0.900      1.550    -2.966649
    Generation configuration:
    6S  1  0  2.00      1.600      1.700    -1.441906
    6S  1  0  0.00      1.600      1.700     4.000000
    6P  2  1  5.00      1.800      2.000    -0.506596
    6P  2  1  0.00      1.800      2.000     7.000000
    5D  3  2 10.00      0.900      1.550    -2.966648
    5D  3  2  0.00      0.900      1.550     5.500000
    Pseudization used: troullier-martins
    <PP_INPUTFILE>
@input
title='At',
zed=85.,
rel=1,
config='[Xe] 4f14 6s2 6p5 5d10',
iswitch=3,
dft='SLA-PW-BEEX-BEEC'
/
@inputp
lpaw=.false.,
pseudotype=3,
file_pseudopw='At.beef-dn-rrkjus_psl.1.0.0.UPF',
author='ADC',
lloc=-1,
rcloc=1.9,
which_augfun='PSQ',
rmatch_augfun_nc=.true.,
nlcc=.true.,
new_core_ps=.true.,
rcore=1.3,
tm=.true.
/
6
6S  1  0  2.00  0.00  1.60  1.70  0.0
6S  1  0  0.00  4.00  1.60  1.70  0.0
6P  2  1  5.00  0.00  1.80  2.00  0.0
6P  2  1  0.00  7.00  1.80  2.00  0.0
5D  3  2 10.00  0.00  0.90  1.55  0.0
5D  3  2  0.00  5.50  0.90  1.55  0.0
    </PP_INPUTFILE>
  </PP_INFO>
    <!-- END OF HUMAN READABLE SECTION -->
  <PP_HEADER generated="Generated using 'atomic' code by A. Dal Corso  v.7.2" author="ADC" date="31May2024" comment="" element="At" pseudo_type="USPP" relativistic="scalar" is_ultrasoft="true" is_paw="false" is_coulomb="false" has_so="false" has_wfc="false" has_gipaw="false" paw_as_gipaw="false" core_correction="true" functional="SLA-PW-BEEX-BEEC" z_valence="17.0000000000000" total_psenergy="-222.593575274168" wfc_cutoff="50.3713314713373" rho_cutoff="471.066078634562" l_max="2" l_max_rho="4" l_local="-1" mesh_size="1285" number_of_wfc="3" number_of_proj="6"/>
  <PP_MESH mesh="1285" dx="1.250000000000000E-002" xmin="-7.00000000000000" rmax="100.000000000000" zmesh="85.0000000000000">
    <PP_R>
   1.072802312417078E-05   1.086296504316497E-05   1.099960432254803E-05
   1.113796231248534E-05   1.127806063169435E-05   1.141992117082246E-05
   1.156356609586751E-05   1.170901785164131E-05   1.185629916527659E-05
   1.200543304977829E-05   1.215644280761926E-05   1.230935203438139E-05
   1.246418462244247E-05   1.262096476470937E-05   1.277971695839833E-05
   1.294046600886257E-05   1.310323703346827E-05   1.326805546551920E-05
   1.343494705823068E-05   1.360393788875362E-05   1.377505436224911E-05
   1.394832321601427E-05   1.412377152366001E-05   1.430142669934135E-05
   1.448131650204095E-05   1.466346903990646E-05   1.484791277464252E-05
   1.503467652595793E-05   1.522378947606880E-05   1.541528117425835E-05
   1.560918154149402E-05   1.580552087510267E-05   1.600432985350463E-05
   1.620563954100726E-05   1.640948139265881E-05   1.661588725916331E-05
   1.682488939185735E-05   1.703652044774936E-05   1.725081349462239E-05
   1.746780201620102E-05   1.768751991738321E-05   1.791000152953802E-05
   1.813528161587000E-05   1.836339537685097E-05   1.859437845572020E-05
   1.882826694405370E-05   1.906509738740361E-05   1.930490679100854E-05
   1.954773262557569E-05   1.979361283313578E-05   2.004258583297146E-05
   2.029469052762050E-05   2.054996630895435E-05   2.080845306433318E-05
   2.107019118283847E-05   2.133522156158371E-05   2.160358561210479E-05
   2.187532526683060E-05   2.215048298563503E-05   2.242910176247149E-05
   2.271122513209070E-05   2.299689717684314E-05   2.328616253356702E-05
   2.357906640056281E-05   2.387565454465569E-05   2.417597330834658E-05
   2.448006961705328E-05   2.478799098644276E-05   2.509978552985539E-05
   2.541550196582299E-05   2.573518962568100E-05   2.605889846127667E-05
   2.638667905277416E-05   2.671858261655773E-05   2.705466101323454E-05
   2.739496675573781E-05   2.773955301753215E-05   2.808847364092204E-05
   2.844178314546475E-05   2.879953673648921E-05   2.916179031372187E-05
   2.952860048002116E-05   2.990002455022186E-05   3.027612056009059E-05
   3.065694727539410E-05   3.104256420108143E-05   3.143303159058177E-05
   3.182841045521914E-05   3.222876257374551E-05   3.263415050199398E-05
   3.304463758265309E-05   3.346028795516433E-05   3.388116656574404E-05
   3.430733917753139E-05   3.473887238086408E-05   3.517583360368306E-05
   3.561829112206842E-05   3.606631407090756E-05   3.651997245469775E-05
   3.697933715848447E-05   3.744447995893725E-05   3.791547353556501E-05
   3.839239148207233E-05   3.887530831785861E-05   3.936429949966202E-05
   3.985944143334955E-05   4.036081148585570E-05   4.086848799727122E-05
   4.138255029308386E-05   4.190307869657329E-05   4.243015454136154E-05
   4.296386018412169E-05   4.350427901744626E-05   4.405149548287741E-05
   4.460559508410127E-05   4.516666440030781E-05   4.573479109971918E-05
   4.631006395328804E-05   4.689257284856813E-05   4.748240880375951E-05
   4.807966398193019E-05   4.868443170541690E-05   4.929680647040682E-05
   4.991688396170283E-05   5.054476106767458E-05   5.118053589539729E-05
   5.182430778598125E-05   5.247617733009413E-05   5.313624638367843E-05
   5.380461808386674E-05   5.448139686509701E-05   5.516668847543072E-05
   5.586059999307621E-05   5.656323984311988E-05   5.727471781446780E-05
   5.799514507700061E-05   5.872463419894373E-05   5.946329916445664E-05
   6.021125539144301E-05   6.096861974958499E-05   6.173551057860452E-05
   6.251204770675383E-05   6.329835246953906E-05   6.409454772867917E-05
   6.490075789130319E-05   6.571710892938940E-05   6.654372839944833E-05
   6.738074546245394E-05   6.822829090402526E-05   6.908649715486179E-05
   6.995549831143640E-05   7.083543015694775E-05   7.172643018253692E-05
   7.262863760877067E-05   7.354219340739484E-05   7.446724032336173E-05
   7.540392289713391E-05   7.635238748726926E-05   7.731278229328963E-05
   7.828525737883733E-05   7.926996469512314E-05   8.026705810466856E-05
   8.127669340534744E-05   8.229902835472961E-05   8.333422269473081E-05
   8.438243817657293E-05   8.544383858605754E-05   8.651858976915807E-05
   8.760685965793346E-05   8.870881829676788E-05   8.982463786894073E-05
   9.095449272353024E-05   9.209855940265615E-05   9.325701666906473E-05
   9.443004553406064E-05   9.561782928579072E-05   9.682055351788270E-05
   9.803840615844481E-05   9.927157749942985E-05   1.005202602263687E-04
   1.017846494484780E-04   1.030649427291462E-04   1.043613401168030E-04
   1.056740441761779E-04   1.070032600199508E-04   1.083491953408017E-04
   1.097120604438627E-04   1.110920682795790E-04   1.124894344769825E-04
   1.139043773773845E-04   1.153371180684921E-04   1.167878804189531E-04
   1.182568911133363E-04   1.197443796875515E-04   1.212505785647146E-04
   1.227757230914648E-04   1.243200515747371E-04   1.258838053189991E-04
   1.274672286639549E-04   1.290705690227233E-04   1.306940769204977E-04
   1.323380060336902E-04   1.340026132295692E-04   1.356881586063957E-04
   1.373949055340640E-04   1.391231206952543E-04   1.408730741271014E-04
   1.426450392633894E-04   1.444392929772759E-04   1.462561156245539E-04
   1.480957910874588E-04   1.499586068190243E-04   1.518448538879985E-04
   1.537548270243234E-04   1.556888246651874E-04   1.576471490016568E-04
   1.596301060258933E-04   1.616380055789664E-04   1.636711613992663E-04
   1.657298911715262E-04   1.678145165764618E-04   1.699253633410339E-04
   1.720627612893438E-04   1.742270443941696E-04   1.764185508291495E-04
   1.786376230216229E-04   1.808846077061345E-04   1.831598559786128E-04
   1.854637233512294E-04   1.877965698079483E-04   1.901587598607750E-04
   1.925506626067109E-04   1.949726517854265E-04   1.974251058376585E-04
   1.999084079643420E-04   2.024229461864869E-04   2.049691134058061E-04
   2.075473074661078E-04   2.101579312154594E-04   2.128013925691329E-04
   2.154781045733433E-04   2.181884854697869E-04   2.209329587609931E-04
   2.237119532764971E-04   2.265259032398462E-04   2.293752483364470E-04
   2.322604337822680E-04   2.351819103934051E-04   2.381401346565223E-04
   2.411355688001795E-04   2.441686808670558E-04   2.472399447870827E-04
   2.503498404514962E-04   2.534988537878208E-04   2.566874768357973E-04
   2.599162078242640E-04   2.631855512490071E-04   2.664960179515879E-04
   2.698481251991639E-04   2.732423967653126E-04   2.766793630118719E-04
   2.801595609718103E-04   2.836835344331397E-04   2.872518340238828E-04
   2.908650172981105E-04   2.945236488230606E-04   2.982283002673523E-04
   3.019795504903110E-04   3.057779856324158E-04   3.096241992068861E-04
   3.135187921924174E-04   3.174623731270881E-04   3.214555582034420E-04
   3.254989713647715E-04   3.295932444026097E-04   3.337390170554483E-04
   3.379369371086992E-04   3.421876604959115E-04   3.464918514012622E-04
   3.508501823633377E-04   3.552633343802177E-04   3.597319970158835E-04
   3.642568685079634E-04   3.688386558768340E-04   3.734780750360936E-04
   3.781758509044243E-04   3.829327175188639E-04   3.877494181494984E-04
   3.926267054156009E-04   3.975653414032301E-04   4.025660977843062E-04
   4.076297559371886E-04   4.127571070687652E-04   4.179489523380819E-04
   4.232061029815255E-04   4.285293804395792E-04   4.339196164851767E-04
   4.393776533536661E-04   4.449043438744128E-04   4.505005516040549E-04
   4.561671509614354E-04   4.619050273642331E-04   4.677150773673096E-04
   4.735982088027982E-04   4.795553409219556E-04   4.855874045387947E-04
   4.916953421755285E-04   4.978801082098390E-04   5.041426690240022E-04
   5.104840031558868E-04   5.169051014518520E-04   5.234069672215709E-04
   5.299906163947979E-04   5.366570776801107E-04   5.434073927256485E-04
   5.502426162818703E-04   5.571638163663639E-04   5.641720744307232E-04
   5.712684855295291E-04   5.784541584914540E-04   5.857302160925169E-04
   5.930977952315221E-04   6.005580471076990E-04   6.081121374005811E-04
   6.157612464521460E-04   6.235065694512451E-04   6.313493166203545E-04
   6.392907134046764E-04   6.473320006636145E-04   6.554744348646638E-04
   6.637192882797337E-04   6.720678491839447E-04   6.805214220569234E-04
   6.890813277866298E-04   6.977489038757500E-04   7.065255046506821E-04
   7.154125014731526E-04   7.244112829544969E-04   7.335232551726286E-04
   7.427498418917459E-04   7.520924847847953E-04   7.615526436587359E-04
   7.711317966826396E-04   7.808314406186541E-04   7.906530910558798E-04
   8.005982826471791E-04   8.106685693489716E-04   8.208655246640432E-04
   8.311907418874070E-04   8.416458343552619E-04   8.522324356970765E-04
   8.629522000908487E-04   8.738068025215753E-04   8.847979390429695E-04
   8.959273270424747E-04   9.071967055096087E-04   9.186078353076843E-04
   9.301624994489492E-04   9.418625033731829E-04   9.537096752298032E-04
   9.657058661635157E-04   9.778529506035596E-04   9.901528265565929E-04
   1.002607415903257E-03   1.015218664698477E-03   1.027988543475534E-03
   1.040919047553968E-03   1.054012197351349E-03   1.067270038698971E-03
   1.080694643161517E-03   1.094288108360747E-03   1.108052558303255E-03
   1.121990143712349E-03   1.136103042364104E-03   1.150393459427648E-03
   1.164863627809722E-03   1.179515808503573E-03   1.194352290942248E-03
   1.209375393356311E-03   1.224587463136079E-03   1.239990877198404E-03
   1.255588042358073E-03   1.271381395703874E-03   1.287373404979399E-03
   1.303566568968634E-03   1.319963417886398E-03   1.336566513773691E-03
   1.353378450898028E-03   1.370401856158788E-03   1.387639389497677E-03
   1.405093744314349E-03   1.422767647887255E-03   1.440663861799788E-03
   1.458785182371779E-03   1.477134441096438E-03   1.495714505082772E-03
   1.514528277503579E-03   1.533578698049079E-03   1.552868743386238E-03
   1.572401427623888E-03   1.592179802783679E-03   1.612206959276970E-03
   1.632486026387709E-03   1.653020172761390E-03   1.673812606900160E-03
   1.694866577664156E-03   1.716185374779146E-03   1.737772329350551E-03
   1.759630814383942E-03   1.781764245312078E-03   1.804176080528571E-03
   1.826869821928271E-03   1.849849015454443E-03   1.873117251652827E-03
   1.896678166232668E-03   1.920535440634805E-03   1.944692802606901E-03
   1.969154026785912E-03   1.993922935287884E-03   2.019003398305162E-03
   2.044399334711120E-03   2.070114712672489E-03   2.096153550269394E-03
   2.122519916123186E-03   2.149217930032173E-03   2.176251763615345E-03
   2.203625640964201E-03   2.231343839302769E-03   2.259410689655931E-03
   2.287830577526160E-03   2.316607943578754E-03   2.345747284335709E-03
   2.375253152878300E-03   2.405130159558518E-03   2.435382972719443E-03
   2.466016319424681E-03   2.497034986196978E-03   2.528443819766125E-03
   2.560247727826270E-03   2.592451679802752E-03   2.625060707628587E-03
   2.658079906530717E-03   2.691514435826147E-03   2.725369519728104E-03
   2.759650448162326E-03   2.794362577593626E-03   2.829511331862850E-03
   2.865102203034362E-03   2.901140752254195E-03   2.937632610618984E-03
   2.974583480055841E-03   3.011999134213296E-03   3.049885419363431E-03
   3.088248255315380E-03   3.127093636340313E-03   3.166427632108046E-03
   3.206256388635443E-03   3.246586129246744E-03   3.287423155545969E-03
   3.328773848401564E-03   3.370644668943414E-03   3.413042159572417E-03
   3.455972944982740E-03   3.499443733196949E-03   3.543461316614143E-03
   3.588032573071286E-03   3.633164466917882E-03   3.678864050104163E-03
   3.725138463282980E-03   3.771994936925538E-03   3.819440792451174E-03
   3.867483443371344E-03   3.916130396447996E-03   3.965389252866523E-03
   4.015267709423456E-03   4.065773559729113E-03   4.116914695425359E-03
   4.168699107418693E-03   4.221134887128844E-03   4.274230227753075E-03
   4.327993425546382E-03   4.382432881117801E-03   4.437557100743024E-03
   4.493374697693518E-03   4.549894393582369E-03   4.607125019727048E-03
   4.665075518529329E-03   4.723754944872550E-03   4.783172467536461E-03
   4.843337370629866E-03   4.904259055041277E-03   4.965947039907831E-03
   5.028410964102668E-03   5.091660587741028E-03   5.155705793705287E-03
   5.220556589189177E-03   5.286223107261433E-03   5.352715608449102E-03
   5.420044482340776E-03   5.488220249209983E-03   5.557253561658999E-03
   5.627155206283344E-03   5.697936105357207E-03   5.769607318540074E-03
   5.842180044604820E-03   5.915665623187543E-03   5.990075536559405E-03
   6.065421411420756E-03   6.141715020717837E-03   6.218968285482324E-03
   6.297193276694005E-03   6.376402217166910E-03   6.456607483459137E-03
   6.537821607806724E-03   6.620057280081834E-03   6.703327349775567E-03
   6.787644828005728E-03   6.873022889549836E-03   6.959474874903709E-03
   7.047014292365949E-03   7.135654820148631E-03   7.225410308514565E-03
   7.316294781941416E-03   7.408322441313062E-03   7.501507666138513E-03
   7.595865016798733E-03   7.691409236821736E-03   7.788155255186285E-03
   7.886118188654583E-03   7.985313344134290E-03   8.085756221070264E-03
   8.187462513866380E-03   8.290448114337807E-03   8.394729114194151E-03
   8.500321807553793E-03   8.607242693489907E-03   8.715508478608450E-03
   8.825136079658612E-03   8.936142626176103E-03   9.048545463159656E-03
   9.162362153781238E-03   9.277610482130317E-03   9.394308455992675E-03
   9.512474309664150E-03   9.632126506799791E-03   9.753283743298832E-03
   9.875964950225974E-03   1.000018929676939E-02   1.012597619323598E-02
   1.025334529408421E-02   1.038231650099524E-02   1.051290996598254E-02
   1.064514609454071E-02   1.077904554883386E-02   1.091462925092416E-02
   1.105191838604090E-02   1.119093440589076E-02   1.133169903200967E-02
   1.147423425915686E-02   1.161856235875155E-02   1.176470588235295E-02
   1.191268766518394E-02   1.206253082969917E-02   1.221425878919795E-02
   1.236789525148264E-02   1.252346422256306E-02   1.268099001040743E-02
   1.284049722874061E-02   1.300201080088998E-02   1.316555596367978E-02
   1.333115827137443E-02   1.349884359967144E-02   1.366863814974451E-02
   1.384056845233754E-02   1.401466137191010E-02   1.419094411083507E-02
   1.436944421364906E-02   1.455018957135630E-02   1.473320842578664E-02
   1.491852937400847E-02   1.510618137279696E-02   1.529619374315872E-02
   1.548859617491320E-02   1.568341873133180E-02   1.588069185383534E-02
   1.608044636675055E-02   1.628271348212649E-02   1.648752480461146E-02
   1.669491233639127E-02   1.690490848218970E-02   1.711754605433179E-02
   1.733285827787078E-02   1.755087879577966E-02   1.777164167420792E-02
   1.799518140780446E-02   1.822153292510746E-02   1.845073159400199E-02
   1.868281322724640E-02   1.891781408806804E-02   1.915577089582954E-02
   1.939672083176622E-02   1.964070154479581E-02   1.988775115740108E-02
   2.013790827158665E-02   2.039121197491054E-02   2.064770184659176E-02
   2.090741796369458E-02   2.117040090739070E-02   2.143669176930011E-02
   2.170633215791177E-02   2.197936420508498E-02   2.225583057263259E-02
   2.253577445898702E-02   2.281923960595006E-02   2.310627030552762E-02
   2.339691140685050E-02   2.369120832318209E-02   2.398920703901431E-02
   2.429095411725279E-02   2.459649670649243E-02   2.490588254838442E-02
   2.521915998509600E-02   2.553637796686404E-02   2.585758605964356E-02
   2.618283445285257E-02   2.651217396721423E-02   2.684565606269770E-02
   2.718333284655888E-02   2.752525708148226E-02   2.787148219382519E-02
   2.822206228196587E-02   2.857705212475634E-02   2.893650719008177E-02
   2.930048364352743E-02   2.966903835715470E-02   3.004222891838739E-02
   3.042011363900997E-02   3.080275156427885E-02   3.119020248214833E-02
   3.158252693261260E-02   3.197978621716525E-02   3.238204240837771E-02
   3.278935835959825E-02   3.320179771477296E-02   3.361942491839018E-02
   3.404230522555014E-02   3.447050471216121E-02   3.490409028526434E-02
   3.534312969348747E-02   3.578769153763135E-02   3.623784528138862E-02
   3.669366126219757E-02   3.715521070223258E-02   3.762256571953267E-02
   3.809579933927015E-02   3.857498550516088E-02   3.906019909101822E-02
   3.955151591245212E-02   4.004901273871554E-02   4.055276730469972E-02
   4.106285832308050E-02   4.157936549661731E-02   4.210236953060683E-02
   4.263195214549346E-02   4.316819608963819E-02   4.371118515224830E-02
   4.426100417646955E-02   4.481773907264309E-02   4.538147683172913E-02
   4.595230553889946E-02   4.653031438730093E-02   4.711559369199207E-02
   4.770823490405501E-02   4.830833062488488E-02   4.891597462065894E-02
   4.953126183698780E-02   5.015428841375082E-02   5.078515170011819E-02
   5.142395026976188E-02   5.207078393625807E-02   5.272575376868315E-02
   5.338896210740594E-02   5.406051258007872E-02   5.474051011782909E-02
   5.542906097165581E-02   5.612627272903065E-02   5.683225433070919E-02
   5.754711608775302E-02   5.827096969876609E-02   5.900392826734779E-02
   5.974610631976569E-02   6.049761982285044E-02   6.125858620211590E-02
   6.202912436010699E-02   6.280935469497857E-02   6.359939911930787E-02
   6.439938107914354E-02   6.520942557329443E-02   6.602965917286070E-02
   6.686021004101113E-02   6.770120795300863E-02   6.855278431648795E-02
   6.941507219198846E-02   7.028820631374502E-02   7.117232311074058E-02
   7.206756072802339E-02   7.297405904829256E-02   7.389195971375491E-02
   7.482140614825689E-02   7.576254357969485E-02   7.671551906270724E-02
   7.768048150165212E-02   7.865758167387379E-02   7.964697225326212E-02
   8.064880783410802E-02   8.166324495525927E-02   8.269044212457996E-02
   8.373055984371763E-02   8.478376063318202E-02   8.585020905773924E-02
   8.693007175212533E-02   8.802351744708334E-02   8.913071699572764E-02
   9.025184340024039E-02   9.138707183890327E-02   9.253657969346936E-02
   9.370054657687972E-02   9.487915436132795E-02   9.607258720667830E-02
   9.728103158924087E-02   9.850467633090904E-02   9.974371262866327E-02
   1.009983340844458E-01   1.022687367354119E-01   1.035551190845602E-01
   1.048576821317499E-01   1.061766294051074E-01   1.075121669928274E-01
   1.088645035753753E-01   1.102338504580934E-01   1.116204216042180E-01
   1.130244336683119E-01   1.144461060301163E-01   1.158856608288305E-01
   1.173433229978203E-01   1.188193202997654E-01   1.203138833622471E-01
   1.218272457137846E-01   1.233596438203245E-01   1.249113171221884E-01
   1.264825080714866E-01   1.280734621700017E-01   1.296844280075483E-01
   1.313156573008162E-01   1.329674049327010E-01   1.346399289921309E-01
   1.363334908143929E-01   1.380483550219672E-01   1.397847895658754E-01
   1.415430657675475E-01   1.433234583612174E-01   1.451262455368501E-01
   1.469517089836096E-01   1.488001339338733E-01   1.506718092078005E-01
   1.525670272584605E-01   1.544860842175297E-01   1.564292799415622E-01
   1.583969180588435E-01   1.603893060168325E-01   1.624067551302012E-01
   1.644495806294781E-01   1.665181017103036E-01   1.686126415833051E-01
   1.707335275245991E-01   1.728810909269288E-01   1.750556673514452E-01
   1.772575965801387E-01   1.794872226689314E-01   1.817448940014356E-01
   1.840309633433903E-01   1.863457878977815E-01   1.886897293606550E-01
   1.910631539776335E-01   1.934664326011419E-01   1.958999407483547E-01
   1.983640586598711E-01   2.008591713591278E-01   2.033856687125606E-01
   2.059439454905211E-01   2.085344014289606E-01   2.111574412918900E-01
   2.138134749346243E-01   2.165029173678242E-01   2.192261888223414E-01
   2.219837148148811E-01   2.247759262144901E-01   2.276032593098802E-01
   2.304661558776000E-01   2.333650632510627E-01   2.363004343904432E-01
   2.392727279534544E-01   2.422824083670122E-01   2.453299458998049E-01
   2.484158167357721E-01   2.515405030485101E-01   2.547044930766126E-01
   2.579082811999585E-01   2.611523680169606E-01   2.644372604227838E-01
   2.677634716885499E-01   2.711315215415364E-01   2.745419362463850E-01
   2.779952486873321E-01   2.814919984514724E-01   2.850327319130705E-01
   2.886180023189337E-01   2.922483698748570E-01   2.959244018331574E-01
   2.996466725813070E-01   3.034157637316832E-01   3.072322642124468E-01
   3.110967703595624E-01   3.150098860099780E-01   3.189722225959754E-01
   3.229843992407072E-01   3.270470428549374E-01   3.311607882349960E-01
   3.353262781619681E-01   3.395441635021298E-01   3.438151033086465E-01
   3.481397649245526E-01   3.525188240870238E-01   3.569529650329639E-01
   3.614428806059169E-01   3.659892723643256E-01   3.705928506911524E-01
   3.752543349048766E-01   3.799744533718905E-01   3.847539436203079E-01
   3.895935524552038E-01   3.944940360753053E-01   3.994561601911478E-01
   4.044807001447200E-01   4.095684410306124E-01   4.147201778186890E-01
   4.199367154783046E-01   4.252188691040817E-01   4.305674640432707E-01
   4.359833360247129E-01   4.414673312894237E-01   4.470203067228209E-01
   4.526431299886136E-01   4.583366796643763E-01   4.641018453788300E-01
   4.699395279508465E-01   4.758506395302048E-01   4.818361037401156E-01
   4.878968558215385E-01   4.940338427793178E-01   5.002480235301506E-01
   5.065403690524228E-01   5.129118625379239E-01   5.193634995454736E-01
   5.258962881564807E-01   5.325112491324563E-01   5.392094160745117E-01
   5.459918355848588E-01   5.528595674303448E-01   5.598136847080436E-01
   5.668552740129275E-01   5.739854356076523E-01   5.812052835944731E-01
   5.885159460893267E-01   5.959185653981020E-01   6.034142981951262E-01
   6.110043157038997E-01   6.186898038800996E-01   6.264719635968899E-01
   6.343520108325597E-01   6.423311768605210E-01   6.504107084416992E-01
   6.585918680193430E-01   6.668759339162802E-01   6.752642005346616E-01
   6.837579785582122E-01   6.923585951570284E-01   7.010673941949528E-01
   7.098857364395530E-01   7.188149997747456E-01   7.278565794160934E-01
   7.370118881288101E-01   7.462823564485099E-01   7.556694329047282E-01
   7.651745842472589E-01   7.747992956753383E-01   7.845450710697084E-01
   7.944134332276017E-01   8.044059241006841E-01   8.145241050359840E-01
   8.247695570198580E-01   8.351438809250228E-01   8.456486977606950E-01
   8.562856489258786E-01   8.670563964658334E-01   8.779626233317762E-01
   8.890060336438433E-01   9.001883529573634E-01   9.115113285324812E-01
   9.229767296071665E-01   9.345863476736636E-01   9.463419967584155E-01
   9.582455137055076E-01   9.702987584636827E-01   9.825036143769562E-01
   9.948619884788950E-01   1.007375811790596E+00   1.020047039622411E+00
   1.032877651879469E+00   1.045869653371039E+00   1.059025074123787E+00
   1.072345969698970E+00   1.085834421513622E+00   1.099492537165784E+00
   1.113322450763814E+00   1.127326323259846E+00   1.141506342787452E+00
   1.155864725003530E+00   1.170403713434516E+00   1.185125579826931E+00
   1.200032624502350E+00   1.215127176716833E+00   1.230411595024873E+00
   1.245888267647929E+00   1.261559612847583E+00   1.277428079303408E+00
   1.293496146495572E+00   1.309766325092263E+00   1.326241157341991E+00
   1.342923217470812E+00   1.359815112084562E+00   1.376919480576140E+00
   1.394238995537922E+00   1.411776363179358E+00   1.429534323749823E+00
   1.447515651966784E+00   1.465723157449358E+00   1.484159685157320E+00
   1.502828115835634E+00   1.521731366464576E+00   1.540872390715514E+00
   1.560254179412431E+00   1.579879760999241E+00   1.599752202013000E+00
   1.619874607563044E+00   1.640250121816180E+00   1.660881928487965E+00
   1.681773251340165E+00   1.702927354684482E+00   1.724347543892602E+00
   1.746037165912667E+00   1.767999609792247E+00   1.790238307207878E+00
   1.812756733001280E+00   1.835558405722295E+00   1.858646888178678E+00
   1.882025787992784E+00   1.905698758165275E+00   1.929669497645904E+00
   1.953941751911484E+00   1.978519313551125E+00   2.003406022858837E+00
   2.028605768433581E+00   2.054122487786874E+00   2.079960167958029E+00
   2.106122846137139E+00   2.132614610295898E+00   2.159439599826353E+00
   2.186602006187696E+00   2.214106073561182E+00   2.241956099513296E+00
   2.270156435667254E+00   2.298711488382952E+00   2.327625719445477E+00
   2.356903646762257E+00   2.386549845069001E+00   2.416568946644510E+00
   2.446965642034478E+00   2.477744680784407E+00   2.508910872181718E+00
   2.540469086007227E+00   2.572424253296049E+00   2.604781367108084E+00
   2.637545483308201E+00   2.670721721356213E+00   2.704315265106812E+00
   2.738331363619556E+00   2.772775331979043E+00   2.807652552125408E+00
   2.842968473695256E+00   2.878728614873184E+00   2.914938563254004E+00
   2.951603976715819E+00   2.988730584304083E+00   3.026324187126765E+00
   3.064390659260789E+00   3.102935948669873E+00   3.141966078133907E+00
   3.181487146190033E+00   3.221505328085536E+00   3.262026876742755E+00
   3.303058123736112E+00   3.344605480281423E+00   3.386675438237683E+00
   3.429274571121414E+00   3.472409535133794E+00   3.516087070200713E+00
   3.560314001025881E+00   3.605097238157227E+00   3.650443779066664E+00
   3.696360709243465E+00   3.742855203301389E+00   3.789934526099724E+00
   3.837606033878448E+00   3.885877175407634E+00   3.934755493151357E+00
   3.984248624446207E+00   4.034364302694640E+00   4.085110358573350E+00
   4.136494721256810E+00   4.188525419656228E+00   4.241210583674091E+00
   4.294558445474458E+00   4.348577340769281E+00   4.403275710120849E+00
   4.458662100260658E+00   4.514745165424849E+00   4.571533668706456E+00
   4.629036483424660E+00   4.687262594511246E+00   4.746221099914536E+00
   4.805921212020947E+00   4.866372259094456E+00   4.927583686734164E+00
   4.989565059350172E+00   5.052326061658051E+00   5.115876500192102E+00
   5.180226304837634E+00   5.245385530382555E+00   5.311364358088418E+00
   5.378173097281286E+00   5.445822186962583E+00   5.514322197440200E+00
   5.583683831980147E+00   5.653917928478934E+00   5.725035461157031E+00
   5.797047542273609E+00   5.869965423862848E+00   5.943800499492106E+00
   6.018564306042167E+00   6.094268525509911E+00   6.170924986833652E+00
   6.248545667741425E+00   6.327142696622552E+00   6.406728354422699E+00
   6.487315076562814E+00   6.568915454882188E+00   6.651542239605943E+00
   6.735208341337311E+00   6.819926833074899E+00   6.905710952255405E+00
   6.992574102821979E+00   7.080529857318615E+00   7.169591959010914E+00
   7.259774324033454E+00   7.351091043564253E+00   7.443556386026518E+00
   7.537184799318128E+00   7.631990913069158E+00   7.727989540927762E+00
   7.825195682874852E+00   7.923624527567876E+00   8.023291454714064E+00
   8.124212037473574E+00   8.226402044892774E+00   8.329877444368236E+00
   8.434654404141646E+00   8.540749295826133E+00   8.648178696964392E+00
   8.756959393618907E+00   8.867108382994846E+00   8.978642876095902E+00
   9.091580300413529E+00   9.205938302650068E+00   9.321734751476024E+00
   9.438987740322116E+00   9.557715590206399E+00   9.677936852596970E+00
   9.799670312310681E+00   9.922934990448276E+00   1.004775014736650E+01
   1.017413528568755E+01   1.030211015334642E+01   1.043169474667657E+01
   1.056290931353433E+01   1.069577435646274E+01   1.083031063589507E+01
   1.096653917339869E+01   1.110448125495975E+01   1.124415843430915E+01
   1.138559253629032E+01   1.152880566026946E+01   1.167382018358854E+01
   1.182065876506189E+01   1.196934434851660E+01   1.211990016637758E+01
   1.227234974329769E+01   1.242671689983347E+01   1.258302575616721E+01
   1.274130073587572E+01   1.290156656974658E+01   1.306384829964241E+01
   1.322817128241365E+01   1.339456119386071E+01   1.356304403274575E+01
   1.373364612485513E+01   1.390639412711285E+01   1.408131503174569E+01
   1.425843617050091E+01   1.443778521891679E+01   1.461939020064702E+01