<UPF version="2.0.1">
  <PP_INFO>
    Generated using "atomic" code by A. Dal Corso  v.7.2
    Author: ADC
    Generation date: 31May2024
    Pseudopotential type: USPP
    Element: Bi
    Functional: SLA-PW-BEEX-BEEC
    Suggested minimum cutoff for wavefunctions:  45. Ry
    Suggested minimum cutoff for charge density: 455. Ry
    The Pseudo was generated with a Scalar-Relativistic Calculation
    Local Potential by smoothing AE potential with Bessel fncs, cutoff radius:   2.1000
    Valence configuration: 
    nl pn  l   occ       Rcut    Rcut US       E pseu
    6S  1  0  2.00      1.700      2.000    -1.080399
    6P  2  1  3.00      2.200      2.400    -0.352059
    5D  3  2 10.00      0.900      1.600    -2.036955
    Generation configuration:
    6S  1  0  2.00      1.700      2.000    -1.080395
    6S  1  0  0.00      1.700      2.000     4.000000
    6P  2  1  3.00      2.200      2.400    -0.352058
    6P  2  1  0.00      2.200      2.400     6.000000
    5D  3  2 10.00      0.900      1.600    -2.036954
    5D  3  2  0.00      0.900      1.600     6.000000
    Pseudization used: troullier-martins
    <PP_INPUTFILE>
@input
title='Bi',
zed=83.,
rel=1,
config='[Xe] 4f14 6s2 6p3 5d10',
iswitch=3,
dft='SLA-PW-BEEX-BEEC'
/
@inputp
lpaw=.false.,
pseudotype=3,
file_pseudopw='Bi.beef-dn-rrkjus_psl.1.0.0.UPF',
author='ADC',
lloc=-1,
rcloc=2.1,
which_augfun='PSQ',
rmatch_augfun_nc=.true.,
nlcc=.true.,
new_core_ps=.true.,
rcore=1.6,
tm=.true.
/
6
6S  1  0  2.00  0.00  1.70  2.00  0.0
6S  1  0  0.00  4.00  1.70  2.00  0.0
6P  2  1  3.00  0.00  2.20  2.40  0.0
6P  2  1  0.00  6.00  2.20  2.40  0.0
5D  3  2 10.00  0.00  0.90  1.60  0.0
5D  3  2  0.00  6.00  0.90  1.60  0.0
    </PP_INPUTFILE>
  </PP_INFO>
    <!-- END OF HUMAN READABLE SECTION -->
  <PP_HEADER generated="Generated using 'atomic' code by A. Dal Corso  v.7.2" author="ADC" date="31May2024" comment="" element="Bi" pseudo_type="USPP" relativistic="scalar" is_ultrasoft="true" is_paw="false" is_coulomb="false" has_so="false" has_wfc="false" has_gipaw="false" paw_as_gipaw="false" core_correction="true" functional="SLA-PW-BEEX-BEEC" z_valence="15.0000000000000" total_psenergy="-156.282492550428" wfc_cutoff="45.2701581270685" rho_cutoff="454.811569361225" l_max="2" l_max_rho="4" l_local="-1" mesh_size="1283" number_of_wfc="3" number_of_proj="6"/>
  <PP_MESH mesh="1283" dx="1.250000000000000E-002" xmin="-7.00000000000000" rmax="100.000000000000" zmesh="83.0000000000000">
    <PP_R>
   1.098652970547610E-05   1.112472323697617E-05   1.126465502911545E-05
   1.140634694652113E-05   1.154982112884361E-05   1.169509999421577E-05
   1.184220624275589E-05   1.199116286011459E-05   1.214199312106639E-05
   1.229472059314644E-05   1.244936914033298E-05   1.260596292677613E-05
   1.276452642057362E-05   1.292508439759394E-05   1.308766194534769E-05
   1.325228446690745E-05   1.341897768487715E-05   1.358776764541123E-05
   1.375868072228443E-05   1.393174362101274E-05   1.410698338302620E-05
   1.428442738989413E-05   1.446410336760362E-05   1.464603939089174E-05
   1.483026388763230E-05   1.501680564327771E-05   1.520569380535680E-05
   1.539695788802921E-05   1.559062777669696E-05   1.578673373267422E-05
   1.598530639791556E-05   1.618637679980394E-05   1.638997635599872E-05
   1.659613687934478E-05   1.680489058284336E-05   1.701627008468532E-05
   1.723030841334789E-05   1.744703901275537E-05   1.766649574750486E-05
   1.788871290815767E-05   1.811372521659726E-05   1.834156783145460E-05
   1.857227635360181E-05   1.880588683171484E-05   1.904243576790623E-05
   1.928196012342849E-05   1.952449732444948E-05   1.977008526790031E-05
   2.001876232739679E-05   2.027056735923544E-05   2.052553970846475E-05
   2.078371921503304E-05   2.104514622001349E-05   2.130986157190748E-05
   2.157790663302735E-05   2.184932328595922E-05   2.212415394010731E-05
   2.240244153832049E-05   2.268422956360214E-05   2.296956204590454E-05
   2.325848356900855E-05   2.355103927748996E-05   2.384727488377346E-05
   2.414723667527517E-05   2.445097152163535E-05   2.475852688204167E-05
   2.506995081264493E-05   2.538529197406788E-05   2.570459963900853E-05
   2.602792369993921E-05   2.635531467690223E-05   2.668682372540382E-05
   2.702250264440727E-05   2.736240388442659E-05   2.770658055572212E-05
   2.805508643659896E-05   2.840797598181004E-05   2.876530433106474E-05
   2.912712731764462E-05   2.949350147712751E-05   2.986448405622119E-05
   3.024013302170842E-05   3.062050706950432E-05   3.100566563382771E-05
   3.139566889648793E-05   3.179057779628821E-05   3.219045403854760E-05
   3.259536010474249E-05   3.300535926226950E-05   3.342051557433119E-05
   3.384089390994594E-05   3.426655995408395E-05   3.469758021793064E-05
   3.513402204927913E-05   3.557595364305357E-05   3.602344405196458E-05
   3.647656319729898E-05   3.693538187984510E-05   3.739997179095553E-05
   3.787040552374916E-05   3.834675658445382E-05   3.882909940389188E-05
   3.931750934911022E-05   3.981206273515641E-05   4.031283683700328E-05
   4.081990990162303E-05   4.133336116021367E-05   4.185327084057896E-05
   4.237972017966420E-05   4.291279143624975E-05   4.345256790380398E-05
   4.399913392349812E-05   4.455257489738473E-05   4.511297730174193E-05
   4.568042870058563E-05   4.625501775935137E-05   4.683683425874856E-05
   4.742596910878895E-05   4.802251436299145E-05   4.862656323276576E-05
   4.923821010197671E-05   4.985755054169201E-05   5.048468132511541E-05
   5.111970044270772E-05   5.176270711749807E-05   5.241380182058758E-05
   5.307308628684826E-05   5.374066353081930E-05   5.441663786280321E-05
   5.510111490516474E-05   5.579420160883428E-05   5.649600627001941E-05
   5.720663854712623E-05   5.792620947789385E-05   5.865483149674414E-05
   5.939261845235002E-05   6.013968562542430E-05   6.089614974673270E-05
   6.166212901533320E-05   6.243774311704488E-05   6.322311324314921E-05
   6.401836210932622E-05   6.482361397482916E-05   6.563899466190035E-05
   6.646463157543098E-05   6.730065372286867E-05   6.814719173437479E-05
   6.900437788323597E-05   6.987234610653189E-05   7.075123202606328E-05
   7.164117296954330E-05   7.254230799205493E-05   7.345477789777878E-05
   7.437872526199407E-05   7.531429445335617E-05   7.626163165645478E-05
   7.722088489465521E-05   7.819220405322755E-05   7.917574090276649E-05
   8.017164912290571E-05   8.118008432633093E-05   8.220120408309430E-05
   8.323516794523533E-05   8.428213747171105E-05   8.534227625363998E-05
   8.641574993986385E-05   8.750272626283002E-05   8.860337506480043E-05
   8.971786832438969E-05   9.084638018343698E-05   9.198908697421641E-05
   9.314616724698881E-05   9.431780179790089E-05   9.550417369723498E-05
   9.670546831801390E-05   9.792187336496639E-05   9.915357890385578E-05
   1.004007773911784E-04   1.016636637042354E-04   1.029424351715824E-04
   1.042372916038631E-04   1.055484353250293E-04   1.068760712039549E-04
   1.082204066864473E-04   1.095816518276604E-04   1.109600193249174E-04
   1.123557245509437E-04   1.137689855875206E-04   1.152000232595604E-04
   1.166490611696107E-04   1.181163257327931E-04   1.196020462121809E-04
   1.211064547546215E-04   1.226297864270106E-04   1.241722792530210E-04
   1.257341742502952E-04   1.273157154681043E-04   1.289171500254811E-04
   1.305387281498333E-04   1.321807032160419E-04   1.338433317860519E-04
   1.355268736489598E-04   1.372315918616070E-04   1.389577527896823E-04
   1.407056261493427E-04   1.424754850493568E-04   1.442676060337786E-04
   1.460822691251578E-04   1.479197578682946E-04   1.497803593745432E-04
   1.516643643666747E-04   1.535720672243020E-04   1.555037660298780E-04
   1.574597626152710E-04   1.594403626089269E-04   1.614458754836244E-04
   1.634766146048305E-04   1.655328972796644E-04   1.676150448064775E-04
   1.697233825250569E-04   1.718582398674609E-04   1.740199504094925E-04
   1.762088519228220E-04   1.784252864277640E-04   1.806696002467193E-04
   1.829421440582885E-04   1.852432729520655E-04   1.875733464841216E-04
   1.899327287331867E-04   1.923217883575374E-04   1.947408986526009E-04
   1.971904376092823E-04   1.996707879730272E-04   2.021823373036262E-04
   2.047254780357719E-04   2.073006075403781E-04   2.099081281866689E-04
   2.125484474050502E-04   2.152219777507717E-04   2.179291369683891E-04
   2.206703480570383E-04   2.234460393365287E-04   2.262566445142700E-04
   2.291026027530392E-04   2.319843587396016E-04   2.349023627541927E-04
   2.378570707408769E-04   2.408489443787883E-04   2.438784511542698E-04
   2.469460644339188E-04   2.500522635385511E-04   2.531975338180967E-04
   2.563823667274358E-04   2.596072599031900E-04   2.628727172414792E-04
   2.661792489766559E-04   2.695273717610313E-04   2.729176087456021E-04
   2.763504896617943E-04   2.798265509042359E-04   2.833463356145676E-04
   2.869103937663118E-04   2.905192822508057E-04   2.941735649642173E-04
   2.978738128956554E-04   3.016206042163873E-04   3.054145243701800E-04
   3.092561661647763E-04   3.131461298645223E-04   3.170850232841604E-04
   3.210734618838010E-04   3.251120688650902E-04   3.292014752685852E-04
   3.333423200723563E-04   3.375352502918292E-04   3.417809210808808E-04
   3.460799958342100E-04   3.504331462909937E-04   3.548410526398469E-04
   3.593044036251049E-04   3.638238966544398E-04   3.684002379078325E-04
   3.730341424479144E-04   3.777263343316975E-04   3.824775467237103E-04
   3.872885220105550E-04   3.921600119169088E-04   3.970927776229803E-04
   4.020875898834468E-04   4.071452291478862E-04   4.122664856827233E-04
   4.174521596947111E-04   4.227030614559643E-04   4.280200114305658E-04
   4.334038404027671E-04   4.388553896067980E-04   4.443755108583134E-04
   4.499650666874894E-04   4.556249304737962E-04   4.613559865824658E-04
   4.671591305026748E-04   4.730352689874677E-04   4.789853201954376E-04
   4.850102138341910E-04   4.911108913056172E-04   4.972883058529825E-04
   5.035434227098786E-04   5.098772192510400E-04   5.162906851450625E-04
   5.227848225090407E-04   5.293606460651496E-04   5.360191832991991E-04
   5.427614746211786E-04   5.495885735278241E-04   5.565015467672304E-04
   5.635014745055299E-04   5.705894504956739E-04   5.777665822483310E-04
   5.850339912049394E-04   5.923928129129347E-04   5.998441972031801E-04
   6.073893083696310E-04   6.150293253512580E-04   6.227654419162577E-04
   6.305988668485833E-04   6.385308241368172E-04   6.465625531654233E-04
   6.546953089084035E-04   6.629303621253883E-04   6.712689995601979E-04
   6.797125241418961E-04   6.882622551883770E-04   6.969195286125119E-04
   7.056856971308858E-04   7.145621304751657E-04   7.235502156061202E-04
   7.326513569303370E-04   7.418669765196655E-04   7.511985143334148E-04
   7.606474284433543E-04   7.702151952615373E-04   7.799033097709946E-04
   7.897132857593297E-04   7.996466560552482E-04   8.097049727680697E-04
   8.198898075302437E-04   8.302027517429227E-04   8.406454168246225E-04
   8.512194344630072E-04   8.619264568698465E-04   8.727681570391746E-04
   8.837462290087004E-04   8.948623881245048E-04   9.061183713090651E-04
   9.175159373326549E-04   9.290568670881535E-04   9.407429638693153E-04
   9.525760536525384E-04   9.645579853821752E-04   9.766906312594370E-04
   9.889758870349256E-04   1.001415672304850E-03   1.014011930810969E-03
   1.026766630744299E-03   1.039681765052657E-03   1.052759351752053E-03
   1.066001434242016E-03   1.079410081624876E-03   1.092987389029066E-03
   1.106735477936493E-03   1.120656496514019E-03   1.134752619949117E-03
   1.149026050789755E-03   1.163479019288540E-03   1.178113783751206E-03
   1.192932630889474E-03   1.207937876178358E-03   1.223131864217965E-03
   1.238516969099836E-03   1.254095594777912E-03   1.269870175444149E-03
   1.285843175908870E-03   1.302017091985895E-03   1.318394450882517E-03
   1.334977811594385E-03   1.351769765305347E-03   1.368772935792335E-03
   1.385989979835331E-03   1.403423587632494E-03   1.421076483220512E-03
   1.438951424900237E-03   1.457051205667671E-03   1.475378653650385E-03
   1.493936632549412E-03   1.512728042086714E-03   1.531755818458261E-03
   1.551022934792822E-03   1.570532401616526E-03   1.590287267323256E-03
   1.610290618650969E-03   1.630545581164009E-03   1.651055319741475E-03
   1.671823039071750E-03   1.692851984153231E-03   1.714145440801369E-03
   1.735706736162088E-03   1.757539239231656E-03   1.779646361383095E-03
   1.802031556899218E-03   1.824698323512369E-03   1.847650202950946E-03
   1.870890781492807E-03   1.894423690525634E-03   1.918252607114341E-03
   1.942381254575624E-03   1.966813403059740E-03   1.991552870139597E-03
   2.016603521407260E-03   2.041969271077953E-03   2.067654082601672E-03
   2.093661969282472E-03   2.119996994905561E-03   2.146663274372271E-03
   2.173664974343022E-03   2.201006313888370E-03   2.228691565148245E-03
   2.256725053999483E-03   2.285111160731751E-03   2.313854320731978E-03
   2.342959025177393E-03   2.372429821737278E-03   2.402271315283557E-03
   2.432488168610307E-03   2.463085103162338E-03   2.494066899772924E-03
   2.525438399410818E-03   2.557204503936665E-03   2.589370176868924E-03
   2.621940444159433E-03   2.654920394978722E-03   2.688315182511203E-03
   2.722130024760373E-03   2.756370205364126E-03   2.791041074420348E-03
   2.826148049322864E-03   2.861696615607930E-03   2.897692327811352E-03
   2.934140810336395E-03   2.971047758332609E-03   3.008418938585706E-03
   3.046260190418633E-03   3.084577426603978E-03   3.123376634287851E-03
   3.162663875925390E-03   3.202445290228032E-03   3.242727093122698E-03
   3.283515578723045E-03   3.324817120312931E-03   3.366638171342258E-03
   3.408985266435337E-03   3.451865022411930E-03   3.495284139321150E-03
   3.539249401488349E-03   3.583767678575189E-03   3.628845926653038E-03
   3.674491189289872E-03   3.720710598650843E-03   3.767511376612697E-03
   3.814900835892209E-03   3.862886381188804E-03   3.911475510341563E-03
   3.960675815500774E-03   4.010494984314212E-03   4.060940801128367E-03
   4.112021148204744E-03   4.163744006951501E-03   4.216117459170548E-03
   4.269149688320348E-03   4.322848980794599E-03   4.377223727217005E-03
   4.432282423752319E-03   4.488033673433893E-03   4.544486187507917E-03
   4.601648786794567E-03   4.659530403066281E-03   4.718140080443363E-03
   4.777486976807145E-03   4.837580365230926E-03   4.898429635428907E-03
   4.960044295223356E-03   5.022433972030223E-03   5.085608414363441E-03
   5.149577493358154E-03   5.214351204313101E-03   5.279939668252402E-03
   5.346353133506988E-03   5.413601977315925E-03   5.481696707447876E-03
   5.550647963842963E-03   5.620466520275283E-03   5.691163286036324E-03
   5.762749307639569E-03   5.835235770546537E-03   5.908634000914533E-03
   5.982955467366382E-03   6.058211782782423E-03   6.134414706115053E-03
   6.211576144226076E-03   6.289708153747182E-03   6.368822942963825E-03
   6.448932873722776E-03   6.530050463363703E-03   6.612188386675019E-03
   6.695359477874356E-03   6.779576732613927E-03   6.864853310011123E-03
   6.951202534704661E-03   7.038637898936578E-03   7.127173064660424E-03
   7.216821865675972E-03   7.307598309790767E-03   7.399516581008892E-03
   7.492591041747233E-03   7.586836235079642E-03   7.682266887009320E-03
   7.778897908769787E-03   7.876744399154789E-03   7.975821646877521E-03
   8.076145132959513E-03   8.177730533149574E-03   8.280593720373161E-03
   8.384750767212557E-03   8.490217948418238E-03   8.597011743451840E-03
   8.705148839061113E-03   8.814646131887255E-03   8.925520731105039E-03
   9.037789961096169E-03   9.151471364156250E-03   9.266582703235793E-03
   9.383141964715725E-03   9.501167361217793E-03   9.620677334450330E-03
   9.741690558089792E-03   9.864225940698581E-03   9.988302628679526E-03
   1.011394000926756E-02   1.024115771355902E-02   1.036997561957901E-02
   1.050041385538745E-02   1.063249280222405E-02   1.076623309769296E-02
   1.090165563898747E-02   1.103878158615516E-02   1.117763236540426E-02
   1.131822967245152E-02   1.146059547591222E-02   1.160475202073280E-02
   1.175072183166666E-02   1.189852771679376E-02   1.204819277108434E-02
   1.219974038000765E-02   1.235319422318589E-02   1.250857827809428E-02
   1.266591682380752E-02   1.282523444479349E-02   1.298655603475460E-02
   1.314990680051750E-02   1.331531226597166E-02   1.348279827605760E-02
   1.365239100080514E-02   1.382411693942256E-02   1.399800292443715E-02
   1.417407612588784E-02   1.435236405557058E-02   1.453289457133712E-02
   1.471569588144784E-02   1.490079654897934E-02   1.508822549628753E-02
   1.527801200952675E-02   1.547018574322581E-02   1.566477672492159E-02
   1.586181535985087E-02   1.606133243570124E-02   1.626335912742173E-02
   1.646792700209394E-02   1.667506802386448E-02   1.688481455893944E-02
   1.709719938064166E-02   1.731225567453163E-02   1.753001704359279E-02
   1.775051751348212E-02   1.797379153784664E-02   1.819987400370690E-02
   1.842880023690819E-02   1.866060600764017E-02   1.889532753602614E-02
   1.913300149778246E-02   1.937366502994920E-02   1.961735573669290E-02
   1.986411169518228E-02   2.011397146153788E-02   2.036697407685653E-02
   2.062315907331163E-02   2.088256648033007E-02   2.114523683084698E-02
   2.141121116763903E-02   2.168053104973746E-02   2.195323855892180E-02
   2.222937630629519E-02   2.250898743894245E-02   2.279211564667193E-02
   2.307880516884213E-02   2.336910080127415E-02   2.366304790325118E-02
   2.396069240460594E-02   2.426208081289732E-02   2.456726022067730E-02
   2.487627831284924E-02   2.518918337411875E-02   2.550602429653826E-02
   2.582685058714651E-02   2.615171237570414E-02   2.648066042252654E-02
   2.681374612641529E-02   2.715102153268927E-02   2.749253934131692E-02
   2.783835291515066E-02   2.818851628826496E-02   2.854308417439929E-02
   2.890211197550722E-02   2.926565579041312E-02   2.963377242357772E-02
   3.000651939397388E-02   3.038395494407409E-02   3.076613804895094E-02
   3.115312842549214E-02   3.154498654173135E-02   3.194177362629648E-02
   3.234355167797676E-02   3.275038347541020E-02   3.316233258689284E-02
   3.357946338031147E-02   3.400184103320122E-02   3.442953154292970E-02
   3.486260173700918E-02   3.530111928353859E-02   3.574515270177673E-02
   3.619477137284861E-02   3.665004555058633E-02   3.711104637250642E-02
   3.757784587092523E-02   3.805051698421408E-02   3.852913356819611E-02
   3.901377040768629E-02   3.950450322817681E-02   4.000140870766927E-02
   4.050456448865579E-02   4.101404919025085E-02   4.152994242047562E-02
   4.205232478869690E-02   4.258127791822255E-02   4.311688445905518E-02
   4.365922810080655E-02   4.420839358577405E-02   4.476446672218200E-02
   4.532753439758930E-02   4.589768459246581E-02   4.647500639393947E-02
   4.705959000971631E-02   4.765152678217565E-02   4.825090920264249E-02
   4.885783092583947E-02   4.947238678452066E-02   5.009467280428927E-02
   5.072478621860196E-02   5.136282548396168E-02   5.200889029530176E-02
   5.266308160156338E-02   5.332550162146911E-02   5.399625385949478E-02
   5.467544312204223E-02   5.536317553381555E-02   5.605955855440329E-02
   5.676470099506920E-02   5.747871303575428E-02   5.820170624229254E-02
   5.893379358384346E-02   5.967508945054358E-02   6.042570967138026E-02
   6.118577153229016E-02   6.195539379448540E-02   6.273469671301025E-02
   6.352380205553125E-02   6.432283312136360E-02   6.513191476073699E-02
   6.595117339430363E-02   6.678073703289188E-02   6.762073529750795E-02
   6.847129943958971E-02   6.933256236151486E-02   7.020465863736718E-02
   7.108772453396410E-02   7.198189803214852E-02   7.288731884834879E-02
   7.380412845640950E-02   7.473247010969720E-02   7.567248886348395E-02
   7.662433159761248E-02   7.758814703944653E-02   7.856408578710983E-02
   7.955230033301723E-02   8.055294508770208E-02   8.156617640394313E-02
   8.259215260119496E-02   8.363103399032576E-02   8.468298289866621E-02
   8.574816369537348E-02   8.682674281711411E-02   8.791888879407030E-02
   8.902477227627292E-02   9.014456606026607E-02   9.127844511610661E-02
   9.242658661470401E-02   9.358916995550334E-02   9.476637679451681E-02
   9.595839107270815E-02   9.716539904473344E-02   9.838758930804403E-02
   9.962515283235511E-02   1.008782829894852E-01   1.021471755835708E-01
   1.034320288816614E-01   1.047330436446989E-01   1.060504231588869E-01
   1.073843732674547E-01   1.087351024028208E-01   1.101028216191606E-01
   1.114877446253843E-01   1.128900878185293E-01   1.143100703175726E-01
   1.157479139976688E-01   1.172038435248179E-01   1.186780863909710E-01
   1.201708729495750E-01   1.216824364515670E-01   1.232130130818193E-01
   1.247628419960445E-01   1.263321653581636E-01   1.279212283781447E-01
   1.295302793503176E-01   1.311595696921704E-01   1.328093539836338E-01
   1.344798900068599E-01   1.361714387865011E-01   1.378842646304955E-01
   1.396186351713662E-01   1.413748214080387E-01   1.431530977481856E-01
   1.449537420511029E-01   1.467770356711262E-01   1.486232635015935E-01
   1.504927140193592E-01   1.523856793298703E-01   1.543024552128077E-01
   1.562433411683029E-01   1.582086404637352E-01   1.601986601811179E-01
   1.622137112650807E-01   1.642541085714550E-01   1.663201709164711E-01
   1.684122211265740E-01   1.705305860888651E-01   1.726755968021799E-01
   1.748475884288063E-01   1.770469003468548E-01   1.792738762032873E-01
   1.815288639676119E-01   1.838122159862550E-01   1.861242890376148E-01
   1.884654443878094E-01   1.908360478471256E-01   1.932364698271768E-01
   1.956670853987812E-01   1.981282743505670E-01   2.006204212483151E-01
   2.031439154950487E-01   2.056991513918778E-01   2.082865281996102E-01
   2.109064502011360E-01   2.135593267645982E-01   2.162455724073572E-01
   2.189656068607599E-01   2.217198551357235E-01   2.245087475891448E-01
   2.273327199911433E-01   2.301922135931525E-01   2.330876751968653E-01
   2.360195572240482E-01   2.389883177872329E-01   2.419944207612973E-01
   2.450383358559472E-01   2.481205386891089E-01   2.512415108612460E-01
   2.544017400306099E-01   2.576017199894380E-01   2.608419507411093E-01
   2.641229385782707E-01   2.674451961619476E-01   2.708092426016461E-01
   2.742156035364667E-01   2.776648112172360E-01   2.811574045896714E-01
   2.846939293785931E-01   2.882749381731946E-01   2.919009905133854E-01
   2.955726529772212E-01   2.992904992694319E-01   3.030551103110647E-01
   3.068670743302542E-01   3.107269869541334E-01   3.146354513019033E-01
   3.185930780790699E-01   3.226004856728691E-01   3.266583002488905E-01
   3.307671558489170E-01   3.349276944899962E-01   3.391405662647549E-01
   3.434064294429794E-01   3.477259505744703E-01   3.520998045931922E-01
   3.565286749227346E-01   3.610132535830967E-01   3.655542412988185E-01
   3.701523476084691E-01   3.748082909755142E-01   3.795227989005777E-01
   3.842966080351146E-01   3.891304642965144E-01   3.940251229846527E-01
   3.989813488999076E-01   4.039999164626620E-01   4.090816098343080E-01
   4.142272230397735E-01   4.194375600915909E-01   4.247134351155248E-01
   4.300556724777819E-01   4.354651069138187E-01   4.409425836587712E-01
   4.464889585795253E-01   4.521050983084460E-01   4.577918803787925E-01
   4.635501933618332E-01   4.693809370056866E-01   4.752850223759103E-01
   4.812633719978548E-01   4.873169200008122E-01   4.934466122639738E-01
   4.996534065642262E-01   5.059382727258074E-01   5.123021927718410E-01
   5.187461610777824E-01   5.252711845267896E-01   5.318782826670512E-01
   5.385684878710947E-01   5.453428454970938E-01   5.522024140522108E-01
   5.591482653579879E-01   5.661814847178229E-01   5.733031710865506E-01
   5.805144372421547E-01   5.878164099596438E-01   5.952102301871111E-01
   6.026970532240092E-01   6.102780489016707E-01   6.179544017660931E-01
   6.257273112630297E-01   6.335979919254033E-01   6.415676735630801E-01
   6.496376014550309E-01   6.578090365439071E-01   6.660832556330655E-01
   6.744615515860741E-01   6.829452335287207E-01   6.915356270535691E-01
   7.002340744270847E-01   7.090419347993664E-01   7.179605844165180E-01
   7.269914168356868E-01   7.361358431428118E-01   7.453952921731077E-01
   7.547712107343236E-01   7.642650638328113E-01   7.738783349024324E-01
   7.836125260363496E-01   7.934691582217320E-01   8.034497715774122E-01
   8.135559255945319E-01   8.237891993802187E-01   8.341511919043210E-01
   8.446435222492521E-01   8.552678298629751E-01   8.660257748151695E-01
   8.769190380566225E-01   8.879493216818777E-01   8.991183491951925E-01
   9.104278657798396E-01   9.218796385707938E-01   9.334754569308542E-01
   9.452171327302308E-01   9.571065006296555E-01   9.691454183670519E-01
   9.813357670478089E-01   9.936794514387113E-01   1.006178400265558E+00
   1.018834566514531E+00   1.031649927737357E+00   1.044626486360300E+00
   1.057766269997046E+00   1.071071331765522E+00   1.084543750608697E+00
   1.098185631619427E+00   1.111999106369372E+00   1.125986333242068E+00
   1.140149497770170E+00   1.154490812976951E+00   1.169012519722090E+00
   1.183716887051808E+00   1.198606212553420E+00   1.213682822714327E+00
   1.228949073285539E+00   1.244407349649769E+00   1.260060067194147E+00
   1.275909671687638E+00   1.291958639663187E+00   1.308209478804695E+00
   1.324664728338839E+00   1.341326959431836E+00   1.358198775591196E+00
   1.375282813072519E+00   1.392581741291419E+00   1.410098263240625E+00
   1.427835115912329E+00   1.445795070725849E+00   1.463980933960662E+00
   1.482395547194899E+00   1.501041787749343E+00   1.519922569137014E+00
   1.539040841518421E+00   1.558399592162518E+00   1.578001845913478E+00
   1.597850665663333E+00   1.617949152830549E+00   1.638300447844638E+00
   1.658907730636852E+00   1.679774221137052E+00   1.700903179776831E+00
   1.722297907998964E+00   1.743961748773265E+00   1.765898087118930E+00
   1.788110350633455E+00   1.810602010028205E+00   1.833376579670718E+00
   1.856437618133841E+00   1.879788728751748E+00   1.903433560182983E+00
   1.927375806980562E+00   1.951619210169257E+00   1.976167557830143E+00
   2.001024685692483E+00   2.026194477733080E+00   2.051680866783146E+00
   2.077487835142823E+00   2.103619415203426E+00   2.130079690077499E+00
   2.156872794236830E+00   2.184002914158450E+00   2.211474288978795E+00
   2.239291211156074E+00   2.267458027140970E+00   2.295979138055785E+00
   2.324859000382128E+00   2.354102126657240E+00   2.383713086179103E+00
   2.413696505720384E+00   2.444057070251386E+00   2.474799523672089E+00
   2.505928669553381E+00   2.537449371887645E+00   2.569366555848748E+00
   2.601685208561618E+00   2.634410379881496E+00   2.667547183182978E+00
   2.701100796159001E+00   2.735076461629857E+00   2.769479488362398E+00
   2.804315251899546E+00   2.839589195400224E+00   2.875306830489875E+00
   2.911473738121648E+00   2.948095569448441E+00   2.985178046705907E+00
   3.022726964106561E+00   3.060748188745145E+00   3.099247661515361E+00
   3.138231398038157E+00   3.177705489601678E+00   3.217676104113038E+00
   3.258149487062081E+00   3.299131962497236E+00   3.340629934013665E+00
   3.382649885753850E+00   3.425198383420734E+00   3.468282075303652E+00
   3.511907693317111E+00   3.556082054052681E+00   3.600812059844103E+00
   3.646104699845781E+00   3.691967051124871E+00   3.738406279767065E+00
   3.785429641996319E+00   3.833044485308651E+00   3.881258249620199E+00
   3.930078468429735E+00   3.979512769995770E+00   4.029568878528498E+00
   4.080254615396718E+00   4.131577900349932E+00   4.183546752755841E+00
   4.236169292853359E+00   4.289453743021439E+00   4.343408429063828E+00
   4.398041781509987E+00   4.453362336932396E+00   4.509378739280388E+00
   4.566099741230794E+00   4.623534205555569E+00   4.681691106506612E+00
   4.740579531218025E+00   4.800208681125976E+00   4.860587873406452E+00
   4.921726542431091E+00   4.983634241241311E+00   5.046320643041011E+00
   5.109795542708007E+00   5.174068858324510E+00   5.239150632726851E+00
   5.305051035074686E+00   5.371780362439966E+00   5.439349041415849E+00
   5.507767629745896E+00   5.577046817973730E+00   5.647197431113458E+00
   5.718230430341114E+00   5.790156914707342E+00   5.862988122871658E+00
   5.936735434858515E+00   6.011410373835446E+00   6.087024607913603E+00
   6.163589951970894E+00   6.241118369498102E+00   6.319621974468198E+00
   6.399113033229170E+00   6.479603966420686E+00   6.561107350914813E+00
   6.643635921781195E+00   6.727202574276940E+00   6.811820365861508E+00
   6.897502518237005E+00   6.984262419414053E+00   7.072113625803728E+00
   7.161069864335762E+00   7.251145034603400E+00   7.342353211035273E+00
   7.434708645094502E+00   7.528225767505559E+00   7.622919190509085E+00
   7.718803710145070E+00   7.815894308564800E+00   7.914206156371804E+00
   8.013754614992317E+00   8.114555239075536E+00   8.216623778924042E+00
   8.319976182954864E+00   8.424628600191395E+00   8.530597382786748E+00
   8.637899088578793E+00   8.746550483677366E+00   8.856568545084016E+00
   8.967970463344663E+00   9.080773645235686E+00   9.194995716483755E+00
   9.310654524519880E+00   9.427768141268142E+00   9.546354865969423E+00
   9.666433228040720E+00   9.788021989970410E+00   9.911140150249908E+00
   1.003580694634226E+01   1.016204185768799E+01   1.028986460874882E+01
   1.041929517208966E+01   1.055035377149935E+01   1.068306088515070E+01
   1.081743724880022E+01   1.095350385902811E+01   1.109128197651905E+01
   1.123079312938420E+01   1.137205911652505E+01   1.151510201103949E+01
   1.165994416367081E+01   1.180660820630005E+01   1.195511705548224E+01
   1.210549391602724E+01   1.225776228462544E+01   1.241194595351921E+01
   1.256806901422053E+01   1.272615586127524E+01   1.288623119607486E+01
   1.304832003071610E+01   1.321244769190915E+01   1.337863982493500E+01
   1.354692239765254E+01   1.371732170455615E+01   1.388986437088420E+01
   1.406457735677935E+01   1.424148796150111E+01   1.442062382769137E+01
   1.460201294569370E+01   1.478568365792683E+01   1.497166466331321E+01