<UPF version="2.0.1">
  <PP_INFO>
    Generated using "atomic" code by A. Dal Corso  v.7.2
    Author: ADC
    Generation date: 31May2024
    Pseudopotential type: PAW
    Element: Cd
    Functional:  SLA  PW   BEEX BEEC
    Suggested minimum cutoff for wavefunctions:  37. Ry
    Suggested minimum cutoff for charge density: 638. Ry
    The Pseudo was generated with a Scalar-Relativistic Calculation
    Local Potential by smoothing AE potential with Bessel fncs, cutoff radius:   2.4000
    Valence configuration: 
    nl pn  l   occ       Rcut    Rcut US       E pseu
    5S  1  0  2.00      1.600      2.300    -0.525897
    5P  2  1  0.50      1.600      2.300    -0.160444
    4D  3  2  9.50      0.750      1.800    -1.108959
    Generation configuration:
    5S  1  0  2.00      1.600      2.300    -0.525895
    5S  1  0  0.00      1.600      2.300     6.000000
    5P  2  1  0.50      1.600      2.300    -0.160444
    5P  2  1  0.00      1.600      2.300     8.000000
    4D  3  2  9.50      0.750      1.800    -1.108958
    4D  3  2  0.00      0.750      1.800     4.300000
    Pseudization used: troullier-martins
    <PP_INPUTFILE>
@input
title='Cd',
zed=48.,
rel=1,
config='[Kr] 5s2 5p0.5 4d9.5',
iswitch=3,
dft='SLA-PW-BEEX-BEEC'
/
@inputp
lpaw=.true.,
pseudotype=3,
file_pseudopw='Cd.beef-n-kjpaw_psl.1.0.0.UPF',
author='ADC',
lloc=-1,
rcloc=2.4,
which_augfun='PSQ',
rmatch_augfun_nc=.true.,
nlcc=.true.,
new_core_ps=.true.,
rcore=1.8,
tm=.true.
/
6
5S  1  0  2.00  0.00  1.60  2.30  0.0
5S  1  0  0.00  6.00  1.60  2.30  0.0
5P  2  1  0.50  0.00  1.60  2.30  0.0
5P  2  1  0.00  8.00  1.60  2.30  0.0
4D  3  2  9.50  0.00  0.75  1.80  0.0
4D  3  2  0.00  4.30  0.75  1.80  0.0
    </PP_INPUTFILE>
  </PP_INFO>
    <!-- END OF HUMAN READABLE SECTION -->
  <PP_HEADER generated="Generated using 'atomic' code by A. Dal Corso  v.7.2" author="ADC" date="31May2024" comment="" element="Cd" pseudo_type="PAW" relativistic="scalar" is_ultrasoft="true" is_paw="true" is_coulomb="false" has_so="false" has_wfc="true" has_gipaw="false" paw_as_gipaw="false" core_correction="true" functional=" SLA  PW   BEEX BEEC" z_valence="12.0000000000000" total_psenergy="-392.594498157687" wfc_cutoff="37.1376793722953" rho_cutoff="637.640086144410" l_max="2" l_max_rho="4" l_local="-1" mesh_size="1239" number_of_wfc="3" number_of_proj="6"/>
  <PP_MESH mesh="1239" dx="1.250000000000000E-002" xmin="-7.00000000000000" rmax="100.000000000000" zmesh="48.0000000000000">
    <PP_R>
   1.899754094905242E-05   1.923650059727130E-05   1.947846598784546E-05
   1.972347492835946E-05   1.997156570195875E-05   2.022277707333144E-05
   2.047714829476539E-05   2.073471911228149E-05   2.099552977184397E-05
   2.125962102564906E-05   2.152703413849244E-05   2.179781089421705E-05
   2.207199360224188E-05   2.234962510417285E-05   2.263074878049704E-05
   2.291540855736080E-05   2.320364891343340E-05   2.349551488685692E-05
   2.379105208228349E-05   2.409030667800120E-05   2.439332543314947E-05
   2.470015569502527E-05   2.501084540648127E-05   2.532544311341697E-05
   2.564399797236419E-05   2.596655975816770E-05   2.629317887176280E-05
   2.662390634805051E-05   2.695879386387183E-05   2.729789374608250E-05
   2.764125897972899E-05   2.798894321632764E-05   2.834100078224779E-05
   2.869748668720036E-05   2.905845663283331E-05   2.942396702143503E-05
   2.979407496474738E-05   3.016883829288949E-05   3.054831556339382E-05
   3.093256607035598E-05   3.132164985369942E-05   3.171562770855691E-05
   3.211456119476980E-05   3.251851264650692E-05   3.292754518200452E-05
   3.334172271342842E-05   3.376110995686056E-05   3.418577244241096E-05
   3.461577652445696E-05   3.505118939201128E-05   3.549207907922029E-05
   3.593851447599463E-05   3.639056533877333E-05   3.684830230142335E-05
   3.731179688627645E-05   3.778112151530448E-05   3.825634952143557E-05
   3.873755516001252E-05   3.922481362039536E-05   3.971820103770993E-05
   4.021779450474394E-05   4.072367208399306E-05   4.123591281985826E-05
   4.175459675099665E-05   4.227980492282779E-05   4.281161940019706E-05
   4.335012328019853E-05   4.389540070515904E-05   4.444753687578559E-05
   4.500661806447822E-05   4.557273162881010E-05   4.614596602517743E-05
   4.672641082262090E-05   4.731415671682098E-05   4.790929554426950E-05
   4.851192029661904E-05   4.912212513521319E-05   4.974000540579945E-05
   5.036565765342716E-05   5.099917963753298E-05   5.164067034721580E-05
   5.229023001670414E-05   5.294796014101788E-05   5.361396349182708E-05
   5.428834413351038E-05   5.497120743941503E-05   5.566266010832189E-05
   5.636281018111722E-05   5.707176705767434E-05   5.778964151394768E-05
   5.851654571928152E-05   5.925259325393682E-05   5.999789912683839E-05
   6.075257979354516E-05   6.151675317444680E-05   6.229053867318875E-05
   6.307405719532949E-05   6.386743116723214E-05   6.467078455519393E-05
   6.548424288481626E-05   6.630793326061806E-05   6.714198438589638E-05
   6.798652658283643E-05   6.884169181287462E-05   6.970761369731817E-05
   7.058442753822315E-05   7.147227033953614E-05   7.237128082850112E-05
   7.328159947733601E-05   7.420336852518187E-05   7.513673200032772E-05
   7.608183574271549E-05   7.703882742672775E-05   7.800785658426209E-05
   7.898907462809599E-05   7.998263487554507E-05   8.098869257241938E-05
   8.200740491728090E-05   8.303893108600605E-05   8.408343225665747E-05
   8.514107163466805E-05   8.621201447834243E-05   8.729642812467873E-05
   8.839448201551543E-05   8.950634772400708E-05   9.063219898143269E-05
   9.177221170434179E-05   9.292656402204170E-05   9.409543630443056E-05
   9.527901119018069E-05   9.647747361527595E-05   9.769101084190856E-05
   9.891981248773912E-05   1.001640705555248E-04   1.014239794631201E-04
   1.026997360738552E-04   1.039915397272962E-04   1.052995922703920E-04
   1.066240980890137E-04   1.079652641398901E-04   1.093232999829455E-04
   1.106984178140432E-04   1.120908324981421E-04   1.135007616028694E-04
   1.149284254325161E-04   1.163740470624604E-04   1.178378523740231E-04
   1.193200700897622E-04   1.208209318092114E-04   1.223406720450678E-04
   1.238795282598353E-04   1.254377409029283E-04   1.270155534482425E-04
   1.286132124321981E-04   1.302309674922617E-04   1.318690714059531E-04
   1.335277801303413E-04   1.352073528420393E-04   1.369080519777004E-04
   1.386301432750245E-04   1.403738958142806E-04   1.421395820603506E-04
   1.439274779053028E-04   1.457378627115004E-04   1.475710193552525E-04
   1.494272342710146E-04   1.513067974961436E-04   1.532100027162174E-04
   1.551371473109238E-04   1.570885324005264E-04   1.590644628929159E-04
   1.610652475312515E-04   1.630911989422036E-04   1.651426336848022E-04
   1.672198722998990E-04   1.693232393602544E-04   1.714530635212506E-04
   1.736096775722460E-04   1.757934184885737E-04   1.780046274841946E-04
   1.802436500650132E-04   1.825108360828631E-04   1.848065397901720E-04
   1.871311198953151E-04   1.894849396186628E-04   1.918683667493363E-04
   1.942817737026735E-04   1.967255375784211E-04   1.992000402196565E-04
   2.017056682724517E-04   2.042428132462881E-04   2.068118715752294E-04
   2.094132446798664E-04   2.120473390300391E-04   2.147145662083488E-04
   2.174153429744688E-04   2.201500913302636E-04   2.229192385857277E-04
   2.257232174257534E-04   2.285624659777391E-04   2.314374278800480E-04
   2.343485523513264E-04   2.372962942606954E-04   2.402811141988257E-04
   2.433034785499051E-04   2.463638595645129E-04   2.494627354334088E-04
   2.526005903622520E-04   2.557779146472594E-04   2.589952047518142E-04
   2.622529633840416E-04   2.655516995753556E-04   2.688919287599973E-04
   2.722741728555728E-04   2.756989603446027E-04   2.791668263571006E-04
   2.826783127541861E-04   2.862339682127530E-04   2.898343483112007E-04
   2.934800156162442E-04   2.971715397708178E-04   3.009094975830808E-04
   3.046944731165463E-04   3.085270577813419E-04   3.124078504266188E-04
   3.163374574341239E-04   3.203164928129465E-04   3.243455782954602E-04
   3.284253434344688E-04   3.325564257015752E-04   3.367394705867891E-04
   3.409751316993839E-04   3.452640708700261E-04   3.496069582541869E-04
   3.540044724368555E-04   3.584573005385705E-04   3.629661383227816E-04
   3.675316903045659E-04   3.721546698607094E-04   3.768357993411729E-04
   3.815758101819620E-04   3.863754430194143E-04   3.912354478059252E-04
   3.961565839271303E-04   4.011396203205610E-04   4.061853355957915E-04
   4.112945181560996E-04   4.164679663216548E-04   4.217064884542582E-04
   4.270109030836512E-04   4.323820390354113E-04   4.378207355604590E-04
   4.433278424661911E-04   4.489042202492661E-04   4.545507402300578E-04
   4.602682846888009E-04   4.660577470034500E-04   4.719200317892702E-04
   4.778560550401860E-04   4.838667442719078E-04   4.899530386668564E-04
   4.961158892209141E-04   5.023562588920182E-04   5.086751227506257E-04
   5.150734681320708E-04   5.215522947908364E-04   5.281126150567697E-04
   5.347554539932590E-04   5.414818495574031E-04   5.482928527621940E-04
   5.551895278407393E-04   5.621729524125518E-04   5.692442176519285E-04
   5.764044284584496E-04   5.836547036296213E-04   5.909961760356896E-04
   5.984299927966548E-04   6.059573154615100E-04   6.135793201897352E-04
   6.212971979350773E-04   6.291121546316354E-04   6.370254113822936E-04
   6.450382046495186E-04   6.531517864485602E-04   6.613674245430824E-04
   6.696864026432514E-04   6.781100206063214E-04   6.866395946397368E-04
   6.952764575067933E-04   7.040219587348866E-04   7.128774648263756E-04
   7.218443594721047E-04   7.309240437676050E-04   7.401179364320201E-04
   7.494274740297847E-04   7.588541111950882E-04   7.683993208591669E-04
   7.780645944804504E-04   7.878514422776059E-04   7.977613934655138E-04
   8.077959964942085E-04   8.179568192908295E-04   8.282454495046107E-04
   8.386634947549552E-04   8.492125828826297E-04   8.598943622041156E-04
   8.707105017691650E-04   8.816626916215899E-04   8.927526430633372E-04
   9.039820889218828E-04   9.153527838209880E-04   9.268665044548651E-04
   9.385250498657880E-04   9.503302417251959E-04   9.622839246183359E-04
   9.743879663324787E-04   9.866442581487694E-04   9.990547151377390E-04
   1.011621276458541E-03   1.024345905661950E-03   1.037230590997166E-03
   1.050277345722487E-03   1.063488208419884E-03   1.076865243313529E-03
   1.090410540592342E-03   1.104126216736580E-03   1.118014414848544E-03
   1.132077304987448E-03   1.146317084508484E-03   1.160735978406176E-03
   1.175336239662029E-03   1.190120149596569E-03   1.205090018225802E-03
   1.220248184622157E-03   1.235597017279974E-03   1.251138914485583E-03
   1.266876304692041E-03   1.282811646898588E-03   1.298947431034863E-03
   1.315286178349967E-03   1.331830441806408E-03   1.348582806479011E-03
   1.365545889958841E-03   1.382722342762200E-03   1.400114848744787E-03
   1.417726125521046E-03   1.435558924888804E-03   1.453616033259243E-03
   1.471900272092283E-03   1.490414498337443E-03   1.509161604880240E-03
   1.528144520994211E-03   1.547366212798623E-03   1.566829683721925E-03
   1.586537974971049E-03   1.606494166006599E-03   1.626701375024024E-03
   1.647162759440848E-03   1.667881516390011E-03   1.688860883219443E-03
   1.710104137997892E-03   1.731614600027137E-03   1.753395630360633E-03
   1.775450632328684E-03   1.797783052070220E-03   1.820396379071259E-03
   1.843294146710152E-03   1.866479932809682E-03   1.889957360196094E-03
   1.913730097265186E-03   1.937801858555490E-03   1.962176405328681E-03
   1.986857546157285E-03   2.011849137519767E-03   2.037155084403127E-03
   2.062779340913049E-03   2.088725910891745E-03   2.114998848543564E-03
   2.141602259068467E-03   2.168540299303473E-03   2.195817178372175E-03
   2.223437158342421E-03   2.251404554892277E-03   2.279723737984353E-03
   2.308399132548623E-03   2.337435219173829E-03   2.366836534807579E-03
   2.396607673465259E-03   2.426753286947853E-03   2.457278085568803E-03
   2.488186838889993E-03   2.519484376467014E-03   2.551175588603790E-03
   2.583265427116692E-03   2.615758906108276E-03   2.648661102750742E-03
   2.681977158079255E-03   2.715712277795244E-03   2.749871733079796E-03
   2.784460861417301E-03   2.819485067429432E-03   2.854949823719635E-03
   2.890860671728235E-03   2.927223222598295E-03   2.964043158052367E-03
   3.001326231280277E-03   3.039078267838071E-03   3.077305166558268E-03
   3.116012900471565E-03   3.155207517740137E-03   3.194895142602677E-03
   3.235081976331313E-03   3.275774298200576E-03   3.316978466468548E-03
   3.358700919370350E-03   3.400948176124134E-03   3.443726837949720E-03
   3.487043589100053E-03   3.530905197905628E-03   3.575318517832058E-03
   3.620290488550941E-03   3.665828137024199E-03   3.711938578602052E-03
   3.758629018134809E-03   3.805906751098639E-03   3.853779164735507E-03
   3.902253739207440E-03   3.951338048765319E-03   4.001039762932378E-03
   4.051366647702575E-03   4.102326566754044E-03   4.153927482677817E-03
   4.206177458221989E-03   4.259084657551543E-03   4.312657347524014E-03
   4.366903898981206E-03   4.421832788057149E-03   4.477452597502513E-03
   4.533772018025686E-03   4.590799849650706E-03   4.648545003092289E-03
   4.707016501148144E-03   4.766223480108803E-03   4.826175191185185E-03
   4.886881001954119E-03   4.948350397822046E-03   5.010592983507130E-03
   5.073618484540017E-03   5.137436748783470E-03   5.202057747971117E-03
   5.267491579265552E-03   5.333748466836045E-03   5.400838763456075E-03
   5.468772952120986E-03   5.537561647685972E-03   5.607215598524665E-03
   5.677745688208598E-03   5.749162937207775E-03   5.821478504612654E-03
   5.894703689877770E-03   5.968849934587295E-03   6.043928824242821E-03
   6.119952090073603E-03   6.196931610869597E-03   6.274879414837546E-03
   6.353807681480403E-03   6.433728743500416E-03   6.514655088726122E-03
   6.596599362063611E-03   6.679574367472307E-03   6.763593069965621E-03
   6.848668597636755E-03   6.934814243709993E-03   7.022043468617800E-03
   7.110369902104037E-03   7.199807345353637E-03   7.290369773149073E-03
   7.382071336053934E-03   7.474926362623994E-03   7.568949361646070E-03
   7.664155024405051E-03   7.760558226979439E-03   7.858174032565772E-03
   7.957017693832271E-03   8.057104655302112E-03   8.158450555766647E-03
   8.261071230729021E-03   8.364982714878474E-03   8.470201244595818E-03
   8.576743260490387E-03   8.684625409968928E-03   8.793864549836784E-03
   8.904477748931808E-03   9.016482290791404E-03   9.129895676353113E-03
   9.244735626689168E-03   9.361020085775454E-03   9.478767223295286E-03
   9.597995437478458E-03   9.718723357976010E-03   9.840969848771143E-03
   9.964754011126755E-03   1.009009518657005E-02   1.021701295991471E-02
   1.034552716232104E-02   1.047565787439461E-02   1.060742542932395E-02
   1.074085041605759E-02   1.087595368252117E-02   1.101275633887495E-02
   1.115127976081230E-02   1.129154559289974E-02   1.143357575195889E-02
   1.157739243049107E-02   1.172301810014491E-02   1.187047551522757E-02
   1.201978771626014E-02   1.217097803357783E-02   1.232407009097532E-02
   1.247908780939803E-02   1.263605541067987E-02   1.279499742132788E-02
   1.295593867635459E-02   1.311890432315855E-02   1.328391982545362E-02
   1.345101096724776E-02   1.362020385687182E-02   1.379152493105905E-02
   1.396500095907582E-02   1.414065904690447E-02   1.431852664147859E-02
   1.449863153497171E-02   1.468100186913987E-02   1.486566613971881E-02
   1.505265320087651E-02   1.524199226972171E-02   1.543371293086913E-02
   1.562784514106213E-02   1.582441923385352E-02   1.602346592434523E-02
   1.622501631398761E-02   1.642910189543910E-02   1.663575455748703E-02
   1.684500659003027E-02   1.705689068912463E-02   1.727143996209168E-02
   1.748868793269183E-02   1.770866854636247E-02   1.793141617552204E-02
   1.815696562494079E-02   1.838535213717908E-02   1.861661139809408E-02
   1.885077954241583E-02   1.908789315939329E-02   1.932798929851152E-02
   1.957110547528075E-02   1.981727967709821E-02   2.006655036918379E-02
   2.031895650059027E-02   2.057453751028920E-02   2.083333333333334E-02
   2.109538440709656E-02   2.136073167759228E-02   2.162941660587137E-02
   2.190148117450051E-02   2.217696789412208E-02   2.245591981009650E-02
   2.273838050922817E-02   2.302439412657600E-02   2.331400535234960E-02
   2.360725943889222E-02   2.390420220775151E-02   2.420488005683924E-02
   2.450933996768106E-02   2.481762951275747E-02   2.512979686293711E-02
   2.544589079500355E-02   2.576596069927678E-02   2.609005658733052E-02
   2.641822909980666E-02   2.675052951432796E-02   2.708700975351024E-02
   2.742772239307546E-02   2.777272067006674E-02   2.812205849116674E-02
   2.847579044112077E-02   2.883397179126566E-02   2.919665850816612E-02
   2.956390726235954E-02   2.993577543721094E-02   3.031232113787921E-02
   3.069360320039617E-02   3.107968120085981E-02   3.147061546474319E-02
   3.186646707632040E-02   3.226729788821112E-02   3.267317053104520E-02
   3.308414842324883E-02   3.350029578095382E-02   3.392167762803147E-02
   3.434835980625268E-02   3.478040898557590E-02   3.521789267456442E-02
   3.566087923093469E-02   3.610943787223742E-02   3.656363868667290E-02
   3.702355264404248E-02   3.748925160683770E-02   3.796080834146896E-02
   3.843829652963543E-02   3.892179077983798E-02   3.941136663903688E-02
   3.990710060445619E-02   4.040907013553656E-02   4.091735366603850E-02
   4.143203061629776E-02   4.195318140563495E-02   4.248088746492117E-02
   4.301523124930182E-02   4.355629625108035E-02   4.410416701276407E-02
   4.465892914027417E-02   4.522066931632174E-02   4.578947531395214E-02
   4.636543601025977E-02   4.694864140027519E-02   4.753918261102718E-02
   4.813715191578136E-02   4.874264274845817E-02   4.935574971823211E-02
   4.997656862431456E-02   5.060519647092269E-02   5.124173148243647E-02
   5.188627311874650E-02   5.253892209079478E-02   5.319978037631101E-02
   5.386895123574682E-02   5.454653922841046E-02   5.523265022880433E-02
   5.592739144316815E-02   5.663087142623013E-02   5.734320009816887E-02
   5.806448876178857E-02   5.879485011991045E-02   5.953439829298261E-02
   6.028324883691171E-02   6.104151876111880E-02   6.180932654682226E-02
   6.258679216555073E-02   6.337403709788886E-02   6.417118435245901E-02
   6.497835848514154E-02   6.579568561853685E-02   6.662329346167244E-02
   6.746131132995754E-02   6.830987016538907E-02   6.916910255701143E-02
   7.003914276163396E-02   7.092012672480877E-02   7.181219210207242E-02
   7.271547828045506E-02   7.363012640025982E-02   7.455627937711626E-02
   7.549408192431133E-02   7.644368057540096E-02   7.740522370710637E-02
   7.837886156249817E-02   7.936474627447214E-02   8.036303188952033E-02
   8.137387439180112E-02   8.239743172751206E-02   8.343386382956930E-02
   8.448333264259743E-02   8.554600214823364E-02   8.662203839075021E-02
   8.771160950299922E-02   8.881488573268374E-02   8.993203946895929E-02
   9.106324526937000E-02   9.220867988712367E-02   9.336852229870973E-02
   9.454295373186468E-02   9.573215769388939E-02   9.693632000032236E-02
   9.815562880397383E-02   9.939027462432511E-02   1.006404503772975E-01
   1.019063514053960E-01   1.031881755082316E-01   1.044861229734284E-01
   1.058003966079184E-01   1.071312017696310E-01   1.084787463995802E-01
   1.098432410543561E-01   1.112248989390246E-01   1.126239359404410E-01
   1.140405706609834E-01   1.154750244527089E-01   1.169275214519408E-01
   1.183982886142905E-01   1.198875557501194E-01   1.213955555604474E-01
   1.229225236733129E-01   1.244686986805901E-01   1.260343221752698E-01
   1.276196387892081E-01   1.292248962313514E-01   1.308503453264410E-01
   1.324962400542049E-01   1.341628375890430E-01   1.358503983402107E-01
   1.375591859925090E-01   1.392894675474849E-01   1.410415133651517E-01
   1.428155972062330E-01   1.446119962749383E-01   1.464309912622770E-01
   1.482728663899166E-01   1.501379094545932E-01   1.520264118730799E-01
   1.539386687277219E-01   1.558749788125434E-01   1.578356446799344E-01
   1.598209726879257E-01   1.618312730480579E-01   1.638668598738520E-01
   1.659280512298912E-01   1.680151691815182E-01   1.701285398451595E-01
   1.722684934392807E-01   1.744353643359847E-01   1.766294911132579E-01
   1.788512166078728E-01   1.811008879689585E-01   1.833788567122419E-01
   1.856854787749738E-01   1.880211145715443E-01   1.903861290497985E-01
   1.927808917480604E-01   1.952057768528737E-01   1.976611632574694E-01
   2.001474346209689E-01   2.026649794283310E-01   2.052141910510540E-01
   2.077954678086401E-01   2.104092130308345E-01   2.130558351206459E-01
   2.157357476181603E-01   2.184493692651579E-01   2.211971240705419E-01
   2.239794413765908E-01   2.267967559260447E-01   2.296495079300334E-01
   2.325381431368619E-01   2.354631129016581E-01   2.384248742568985E-01
   2.414238899838208E-01   2.444606286847336E-01   2.475355648562376E-01
   2.506491789633654E-01   2.538019575146558E-01   2.569943931381721E-01
   2.602269846584753E-01   2.635002371745673E-01   2.668146621388134E-01
   2.701707774368571E-01   2.735691074685422E-01   2.770101832298498E-01
   2.804945423958687E-01   2.840227294048076E-01   2.875952955430646E-01
   2.912127990313675E-01   2.948758051119960E-01   2.985848861371028E-01
   3.023406216581443E-01   3.061435985164364E-01   3.099944109348509E-01
   3.138936606106623E-01   3.178419568095660E-01   3.218399164608756E-01
   3.258881642539204E-01   3.299873327356547E-01   3.341380624094932E-01
   3.383410018353926E-01   3.425968077311888E-01   3.469061450752115E-01
   3.512696872101884E-01   3.556881159484555E-01   3.601621216784927E-01
   3.646924034727977E-01   3.692796691971177E-01   3.739246356210552E-01
   3.786280285300639E-01   3.833905828388553E-01   3.882130427062295E-01
   3.930961616513519E-01   3.980407026714929E-01   4.030474383612462E-01
   4.081171510332500E-01   4.132506328404236E-01   4.184486858997432E-01
   4.237121224175754E-01   4.290417648165841E-01   4.344384458642379E-01
   4.399030088029297E-01   4.454363074817365E-01   4.510392064898348E-01
   4.567125812915931E-01   4.624573183633676E-01   4.682743153320130E-01
   4.741644811151404E-01   4.801287360631373E-01   4.861680121029734E-01
   4.922832528838172E-01   4.984754139244823E-01   5.047454627627289E-01
   5.110943791064451E-01   5.175231549867260E-01   5.240327949128828E-01
   5.306243160293979E-01   5.372987482748557E-01   5.440571345428745E-01
   5.509005308450584E-01   5.578300064760028E-01   5.648466441803731E-01
   5.719515403220857E-01   5.791458050556183E-01   5.864305624994720E-01
   5.938069509118186E-01   6.012761228683549E-01   6.088392454423949E-01
   6.164975003872285E-01   6.242520843207714E-01   6.321042089125403E-01
   6.400551010729778E-01   6.481060031451599E-01   6.562581730989157E-01
   6.645128847273857E-01   6.728714278460561E-01   6.813351084942952E-01
   6.899052491394234E-01   6.985831888833531E-01   7.073702836718243E-01
   7.162679065062750E-01   7.252774476583760E-01   7.344003148872617E-01
   7.436379336594978E-01   7.529917473718114E-01   7.624632175766252E-01
   7.720538242104290E-01   7.817650658250211E-01   7.915984598216621E-01
   8.015555426881699E-01   8.116378702389997E-01   8.218470178583449E-01
   8.321845807462908E-01   8.426521741680711E-01   8.532514337064546E-01
   8.639840155173077E-01   8.748515965883752E-01   8.858558750013085E-01
   8.969985701969988E-01   9.082814232442402E-01   9.197061971117760E-01
   9.312746769437679E-01   9.429886703387247E-01   9.548500076319478E-01
   9.668605421815207E-01   9.790221506579022E-01   9.913367333371604E-01
   1.003806214397893E+00   1.016432542221884E+00   1.029217689698546E+00
   1.042163654533183E+00   1.055272459559139E+00   1.068546153053869E+00
   1.081986809058989E+00   1.095596527704343E+00   1.109377435536159E+00
   1.123331685849324E+00   1.137461459023839E+00   1.151768962865509E+00
   1.166256432950920E+00   1.180926132976746E+00   1.195780355113463E+00
   1.210821420363501E+00   1.226051678923904E+00   1.241473510553562E+00
   1.257089324945042E+00   1.272901562101112E+00   1.288912692715999E+00
   1.305125218561435E+00   1.321541672877570E+00   1.338164620768789E+00
   1.354996659604521E+00   1.372040419425078E+00   1.389298563352608E+00
   1.406773788007212E+00   1.424468823928295E+00   1.442386436001222E+00
   1.460529423889332E+00   1.478900622471395E+00   1.497502902284564E+00
   1.516339169972910E+00   1.535412368741580E+00   1.554725478816687E+00
   1.574281517910973E+00   1.594083541695331E+00   1.614134644276269E+00
   1.634437958679357E+00   1.654996657338779E+00   1.675813952593027E+00
   1.696893097186836E+00   1.718237384779438E+00   1.739850150459193E+00
   1.761734771264710E+00   1.783894666712514E+00   1.806333299331352E+00
   1.829054175203226E+00   1.852060844511215E+00   1.875356902094206E+00
   1.898945988008593E+00   1.922831788097039E+00   1.947018034564410E+00
   1.971508506560920E+00   1.996307030772645E+00   2.021417482019447E+00
   2.046843783860418E+00   2.072589909206955E+00   2.098659880943524E+00
   2.125057772556245E+00   2.151787708769393E+00   2.178853866189880E+00
   2.206260473959873E+00   2.234011814417595E+00   2.262112223766452E+00
   2.290566092752575E+00   2.319377867350882E+00   2.348552049459776E+00
   2.378093197604563E+00   2.408005927649745E+00   2.438294913520248E+00
   2.468964887931736E+00   2.500020643130114E+00   2.531467031640312E+00
   2.563308967024513E+00   2.595551424649905E+00   2.628199442466087E+00
   2.661258121792269E+00   2.694732628114354E+00   2.728628191892057E+00
   2.762950109376181E+00   2.797703743436157E+00   2.832894524398020E+00
   2.868527950892890E+00   2.904609590716152E+00   2.941145081697437E+00
   2.978140132581542E+00   3.015600523920437E+00   3.053532108976483E+00
   3.091940814637015E+00   3.130832642340437E+00   3.170213669013950E+00
   3.210090048023099E+00   3.250468010133231E+00   3.291353864483075E+00
   3.332753999570556E+00   3.374674884251007E+00   3.417123068747955E+00
   3.460105185676586E+00   3.503627951080116E+00   3.547698165479190E+00
   3.592322714934465E+00   3.637508572122590E+00   3.683262797425676E+00
   3.729592540034517E+00   3.776505039065654E+00   3.824007624692500E+00
   3.872107719290712E+00   3.920812838597927E+00   3.970130592888129E+00
   4.020068688160762E+00   4.070634927344812E+00   4.121837211518033E+00
   4.173683541141497E+00   4.226182017309688E+00   4.279340843016320E+00
   4.333168324436055E+00   4.387672872222386E+00   4.442863002821793E+00
   4.498747339804464E+00   4.555334615211754E+00   4.612633670920566E+00
   4.670653460024940E+00   4.729403048234960E+00   4.788891615293314E+00
   4.849128456409631E+00   4.910122983712887E+00   4.971884727722077E+00
   5.034423338835349E+00   5.097748588837930E+00   5.161870372428965E+00
   5.226798708767595E+00   5.292543743038480E+00   5.359115748036978E+00
   5.426525125774313E+00   5.494782409102901E+00   5.563898263362128E+00
   5.633883488044849E+00   5.704749018484804E+00   5.776505927565296E+00
   5.849165427449365E+00   5.922738871331686E+00   5.997237755212564E+00
   6.072673719694170E+00   6.149058551799428E+00   6.226404186813762E+00
   6.304722710149997E+00   6.384026359236756E+00   6.464327525430551E+00
   6.545638755951969E+00   6.627972755846209E+00   6.711342389968261E+00
   6.795760684993084E+00   6.881240831451019E+00   6.967796185788861E+00
   7.055440272456824E+00   7.144186786021758E+00   7.234049593306974E+00
   7.325042735558934E+00   7.417180430641238E+00   7.510477075256202E+00
   7.604947247194352E+00   7.700605707612269E+00   7.797467403339003E+00
   7.895547469211581E+00   7.994861230439838E+00   8.095424205001017E+00
   8.197252106064502E+00   8.300360844446999E+00   8.404766531098657E+00
   8.510485479620428E+00   8.617534208813099E+00   8.725929445258416E+00
   8.835688125932595E+00   8.946827400852799E+00   9.059364635756847E+00
   9.173317414816644E+00   9.288703543385774E+00   9.405541050781574E+00
   9.523848193102278E+00   9.643643456079575E+00   9.764945557967021E+00
   9.887773452464844E+00   1.001214633168144E+01   1.013808362913224E+01
   1.026560502277618E+01   1.039473043809046E+01   1.052548005118394E+01
   1.065787429194967E+01   1.079193384725713E+01   1.092767966418459E+01
   1.106513295329211E+01   1.120431519193577E+01   1.134524812762353E+01
   1.148795378141332E+01   1.163245445135387E+01   1.177877271596886E+01
   1.192693143778482E+01   1.207695376690347E+01   1.222886314461895E+01
   1.238268330708059E+01   1.253843828900171E+01   1.269615242741516E+01
   1.285585036547591E+01   1.301755705631170E+01   1.318129776692196E+01
   1.334709808212585E+01   1.351498390855997E+01   1.368498147872624E+01
   1.385711735509088E+01   1.403141843423478E+01   1.420791195105616E+01
   1.438662548302612E+01   1.456758695449762E+01   1.475082464106875E+01
   1.493636717400083E+01   1.512424354469211E+01   1.531448310920778E+01
   1.550711559286681E+01   1.570217109488671E+01   1.589968009308649E+01
   1.609967344864896E+01   1.630218241094283E+01   1.650723862240546E+01
   1.671487412348708E+01   1.692512135765717E+01   1.713801317647380E+01
   1.735358284471683E+01   1.757186404558549E+01   1.779289088596151E+01
   1.801669790173837E+01   1.824332006321762E+01   1.847279278057309E+01
   1.870515190938372E+01   1.894043375623611E+01   1.917867508439752E+01
   1.941991311956017E+01   1.966418555565789E+01   1.991153056075578E+01
   2.016198678301411E+01   2.041559335672717E+01   2.067238990843805E+01
   2.093241656313044E+01   2.119571395049815E+01   2.146232321129364E+01
   2.173228600375633E+01   2.200564451012177E+01   2.228244144321278E+01
   2.256272005311325E+01   2.284652413392624E+01   2.313389803061677E+01
   2.342488664594084E+01   2.371953544746167E+01   2.401789047465393E+01
   2.431999834609763E+01   2.462590626676233E+01   2.493566203538299E+01
   2.524931405192870E+01   2.556691132516514E+01   2.588850348031243E+01