<UPF version="2.0.1">
  <PP_INFO>
    Generated using "atomic" code by A. Dal Corso  v.7.2
    Author: ADC
    Generation date: 31May2024
    Pseudopotential type: PAW
    Element: Cu
    Functional:  SLA  PW   BEEX BEEC
    Suggested minimum cutoff for wavefunctions:  46. Ry
    Suggested minimum cutoff for charge density: 236. Ry
    The Pseudo was generated with a Scalar-Relativistic Calculation
    Local Potential by smoothing AE potential with Bessel fncs, cutoff radius:   1.9000
    Valence configuration: 
    nl pn  l   occ       Rcut    Rcut US       E pseu
    4S  1  0  1.50      1.300      2.100    -0.402341
    4P  2  1  0.00      1.300      2.100    -0.090079
    3D  3  2  9.50      1.300      1.800    -0.555125
    Generation configuration:
    4S  1  0  1.50      1.300      2.100    -0.402334
    4S  1  0  0.00      1.300      2.100     6.100000
    4P  2  1  0.00      1.300      2.100    -0.090073
    4P  2  1  0.00      1.300      2.100     6.300000
    3D  3  2  9.50      1.300      1.800    -0.555111
    3D  3  2  0.00      1.300      1.800    -0.200000
    Pseudization used: troullier-martins
    <PP_INPUTFILE>
@input
title='Cu',
zed=29.,
rel=1,
config='[Ar] 4s1.5 4p0 3d9.5',
iswitch=3,
dft='SLA-PW-BEEX-BEEC'
/
@inputp
lpaw=.true.,
pseudotype=3,
file_pseudopw='Cu.beef-dn-kjpaw_psl.1.0.0.UPF',
author='ADC',
lloc=-1,
rcloc=1.9,
which_augfun='PSQ',
rmatch_augfun_nc=.true.,
nlcc=.true.,
new_core_ps=.true.,
rcore=1.0,
tm=.true.
/
6
4S  1  0  1.50  0.00  1.30  2.10  0.0
4S  1  0  0.00  6.10  1.30  2.10  0.0
4P  2  1  0.00  0.00  1.30  2.10  0.0
4P  2  1  0.00  6.30  1.30  2.10  0.0
3D  3  2  9.50  0.00  1.30  1.80  0.0
3D  3  2  0.00 -0.20  1.30  1.80  0.0
    </PP_INPUTFILE>
  </PP_INFO>
    <!-- END OF HUMAN READABLE SECTION -->
  <PP_HEADER generated="Generated using 'atomic' code by A. Dal Corso  v.7.2" author="ADC" date="31May2024" comment="" element="Cu" pseudo_type="PAW" relativistic="scalar" is_ultrasoft="true" is_paw="true" is_coulomb="false" has_so="false" has_wfc="true" has_gipaw="false" paw_as_gipaw="false" core_correction="true" functional=" SLA  PW   BEEX BEEC" z_valence="11.0000000000000" total_psenergy="-218.149802466732" wfc_cutoff="46.3538908047228" rho_cutoff="236.365680655368" l_max="2" l_max_rho="4" l_local="-1" mesh_size="1199" number_of_wfc="3" number_of_proj="6"/>
  <PP_MESH mesh="1199" dx="1.250000000000000E-002" xmin="-7.00000000000000" rmax="100.000000000000" zmesh="29.0000000000000">
    <PP_R>
   3.144420570877642E-05   3.183972512651801E-05   3.224021956608904E-05
   3.264575160556048E-05   3.305638461013862E-05   3.347218274206582E-05
   3.389321097064616E-05   3.431953508239694E-05   3.475122169132795E-05
   3.518833824935016E-05   3.563095305681507E-05   3.607913527318685E-05
   3.653295492784862E-05   3.699248293104472E-05   3.745779108496062E-05
   3.792895209494201E-05   3.840603958085529E-05   3.888912808859077E-05
   3.937829310171060E-05   3.987361105324337E-05   4.037515933762670E-05
   4.088301632280044E-05   4.139726136245175E-05   4.191797480841430E-05
   4.244523802322348E-05   4.297913339282930E-05   4.351974433946946E-05
   4.406715533470429E-05   4.462145191261545E-05   4.518272068317103E-05
   4.575104934575833E-05   4.632652670288713E-05   4.690924267406531E-05
   4.749928830984886E-05   4.809675580606892E-05   4.870173851823730E-05
   4.931433097613360E-05   4.993462889857571E-05   5.056272920837597E-05
   5.119873004748575E-05   5.184273079233008E-05   5.249483206933557E-05
   5.315513577065346E-05   5.382374507008042E-05   5.450076443917990E-05
   5.518629966360567E-05   5.588045785963127E-05   5.658334749088710E-05
   5.729507838530806E-05   5.801576175229452E-05   5.874551020008875E-05
   5.948443775337043E-05   6.023265987107310E-05   6.099029346442485E-05
   6.175745691521621E-05   6.253427009429707E-05   6.332085438030714E-05
   6.411733267864141E-05   6.492382944065439E-05   6.574047068310609E-05
   6.656738400785205E-05   6.740469862178162E-05   6.825254535700678E-05
   6.911105669130479E-05   6.998036676881842E-05   7.086061142101582E-05
   7.175192818791480E-05   7.265445633957359E-05   7.356833689785201E-05
   7.449371265844671E-05   7.543072821320293E-05   7.637952997270748E-05
   7.734026618916563E-05   7.831308697956576E-05   7.929814434913572E-05
   8.029559221509358E-05   8.130558643069768E-05   8.232828480959908E-05
   8.336384715050012E-05   8.441243526212355E-05   8.547421298849512E-05
   8.654934623454478E-05   8.763800299202960E-05   8.874035336578276E-05
   8.985656960029304E-05   9.098682610661798E-05   9.213129948963623E-05
   9.329016857564229E-05   9.446361444028856E-05   9.565182043687891E-05
   9.685497222501769E-05   9.807325779961958E-05   9.930686752028425E-05
   1.005559941410403E-04   1.018208328404637E-04   1.031015812521745E-04
   1.043984394957178E-04   1.057116102078325E-04   1.070412985741141E-04
   1.083877123610752E-04   1.097510619486092E-04   1.111315603628630E-04
   1.125294233095224E-04   1.139448692075166E-04   1.153781192231473E-04
   1.168293973046452E-04   1.182989302171633E-04   1.197869475782088E-04
   1.212936818935217E-04   1.228193685934045E-04   1.243642460695079E-04
   1.259285557120808E-04   1.275125419476873E-04   1.291164522773993E-04
   1.307405373154692E-04   1.323850508284884E-04   1.340502497750390E-04
   1.357363943458442E-04   1.374437480044238E-04   1.391725775282606E-04
   1.409231530504851E-04   1.426957481020840E-04   1.444906396546407E-04
   1.463081081636117E-04   1.481484376121497E-04   1.500119155554748E-04
   1.518988331658071E-04   1.538094852778621E-04   1.557441704349195E-04
   1.577031909354715E-04   1.596868528804567E-04   1.616954662210900E-04
   1.637293448072923E-04   1.657888064367307E-04   1.678741729044746E-04
   1.699857700532776E-04   1.721239278244902E-04   1.742889803096143E-04
   1.764812658025054E-04   1.787011268522319E-04   1.809489103165995E-04
   1.832249674163474E-04   1.855296537900283E-04   1.878633295495769E-04
   1.902263593365783E-04   1.926191123792448E-04   1.950419625501072E-04
   1.974952884244340E-04   1.999794733393844E-04   2.024949054539052E-04
   2.050419778093826E-04   2.076210883910538E-04   2.102326401901944E-04
   2.128770412670865E-04   2.155547048147780E-04   2.182660492236465E-04
   2.210114981467718E-04   2.237914805661340E-04   2.266064308596420E-04
   2.294567888690060E-04   2.323429999684644E-04   2.352655151343734E-04
   2.382247910156735E-04   2.412212900052419E-04   2.442554803121420E-04
   2.473278360347827E-04   2.504388372349962E-04   2.535889700130495E-04
   2.567787265835981E-04   2.600086053525955E-04   2.632791109951711E-04
   2.665907545344852E-04   2.699440534215784E-04   2.733395316162242E-04
   2.767777196687984E-04   2.802591548031797E-04   2.837843810006907E-04
   2.873539490850969E-04   2.909684168086737E-04   2.946283489393565E-04
   2.983343173489874E-04   3.020869011026699E-04   3.058866865492503E-04
   3.097342674129353E-04   3.136302448860626E-04   3.175752277230393E-04
   3.215698323354595E-04   3.256146828884211E-04   3.297104113980522E-04
   3.338576578302649E-04   3.380570702007527E-04   3.423093046762418E-04
   3.466150256770202E-04   3.509749059807544E-04   3.553896268276117E-04
   3.598598780267070E-04   3.643863580638847E-04   3.689697742108596E-04
   3.736108426357297E-04   3.783102885148785E-04   3.830688461462864E-04
   3.878872590642643E-04   3.927662801556337E-04   3.977066717773666E-04
   4.027092058757049E-04   4.077746641067799E-04   4.129038379587456E-04
   4.180975288754517E-04   4.233565483816706E-04   4.286817182098994E-04
   4.340738704287586E-04   4.395338475730024E-04   4.450625027751680E-04
   4.506606998988791E-04   4.563293136738251E-04   4.620692298324424E-04
   4.678813452483080E-04   4.737665680762808E-04   4.797258178944011E-04
   4.857600258475766E-04   4.918701347930778E-04   4.980570994478579E-04
   5.043218865377317E-04   5.106654749484280E-04   5.170888558785415E-04
   5.235930329944119E-04   5.301790225869460E-04   5.368478537304169E-04
   5.436005684432586E-04   5.504382218508830E-04   5.573618823505474E-04
   5.643726317782906E-04   5.714715655779743E-04   5.786597929724473E-04
   5.859384371368644E-04   5.933086353741856E-04   6.007715392928798E-04
   6.083283149868677E-04   6.159801432177259E-04   6.237282195991827E-04
   6.315737547839372E-04   6.395179746528237E-04   6.475621205063590E-04
   6.557074492586984E-04   6.639552336340321E-04   6.723067623654481E-04
   6.807633403963028E-04   6.893262890841183E-04   6.979969464070480E-04
   7.067766671729399E-04   7.156668232310256E-04   7.246688036862770E-04
   7.337840151164543E-04   7.430138817918887E-04   7.523598458980266E-04
   7.618233677607739E-04   7.714059260746759E-04   7.811090181339645E-04
   7.909341600665148E-04   8.008828870707439E-04   8.109567536554865E-04
   8.211573338828923E-04   8.314862216143751E-04   8.419450307596564E-04
   8.525353955289447E-04   8.632589706882809E-04   8.741174318181016E-04
   8.851124755750495E-04   8.962458199570809E-04   9.075192045719073E-04
   9.189343909088098E-04   9.304931626138789E-04   9.421973257687093E-04
   9.540487091726061E-04   9.660491646283387E-04   9.782005672314862E-04
   9.905048156634286E-04   1.002963832488016E-03   1.015579564451976E-03
   1.028353982789093E-03   1.041289083528224E-03   1.054386887805176E-03
   1.067649442178514E-03   1.081078818949341E-03   1.094677116485102E-03
   1.108446459547451E-03   1.122388999624256E-03   1.136506915265771E-03
   1.150802412425037E-03   1.165277724802571E-03   1.179935114195380E-03
   1.194776870850380E-03   1.209805313822243E-03   1.225022791335757E-03
   1.240431681152747E-03   1.256034390943594E-03   1.271833358663449E-03
   1.287831052933159E-03   1.304029973425003E-03   1.320432651253264E-03
   1.337041649369724E-03   1.353859562964132E-03   1.370889019869701E-03
   1.388132680973719E-03   1.405593240633318E-03   1.423273427096467E-03
   1.441176002928273E-03   1.459303765442632E-03   1.477659547139317E-03
   1.496246216146565E-03   1.515066676669221E-03   1.534123869442535E-03
   1.553420772191649E-03   1.572960400096876E-03   1.592745806264832E-03
   1.612780082205482E-03   1.633066358315204E-03   1.653607804365913E-03
   1.674407630000344E-03   1.695469085233572E-03   1.716795460960826E-03
   1.738390089471703E-03   1.760256344970842E-03   1.782397644105151E-03
   1.804817446497669E-03   1.827519255288132E-03   1.850506617680349E-03
   1.873783125496465E-03   1.897352415738180E-03   1.921218171155049E-03
   1.945384120819909E-03   1.969854040711562E-03   1.994631754304776E-03
   2.019721133167708E-03   2.045126097566853E-03   2.070850617079585E-03
   2.096898711214413E-03   2.123274450039043E-03   2.149981954816325E-03
   2.177025398648221E-03   2.204409007127848E-03   2.232137058999743E-03
   2.260213886828426E-03   2.288643877675365E-03   2.317431473784475E-03
   2.346581173276214E-03   2.376097530850434E-03   2.405985158498057E-03
   2.436248726221710E-03   2.466892962765423E-03   2.497922656353500E-03
   2.529342655438694E-03   2.561157869459790E-03   2.593373269608703E-03
   2.625993889607253E-03   2.659024826493681E-03   2.692471241419075E-03
   2.726338360453817E-03   2.760631475404157E-03   2.795355944639079E-03
   2.830517193927546E-03   2.866120717286295E-03   2.902172077838290E-03
   2.938676908681960E-03   2.975640913771398E-03   3.013069868807601E-03
   3.050969622140942E-03   3.089346095684990E-03   3.128205285841811E-03
   3.167553264438929E-03   3.207396179678053E-03   3.247740257095748E-03
   3.288591800536195E-03   3.329957193136166E-03   3.371842898322417E-03
   3.414255460821598E-03   3.457201507682888E-03   3.500687749313486E-03
   3.544720980527117E-03   3.589308081605748E-03   3.634456019374634E-03
   3.680171848290904E-03   3.726462711545839E-03   3.773335842180998E-03
   3.820798564218411E-03   3.868858293804958E-03   3.917522540371164E-03
   3.966798907804566E-03   4.016695095637826E-03   4.067218900251812E-03
   4.118378216093782E-03   4.170181036910921E-03   4.222635456999377E-03
   4.275749672469008E-03   4.329531982524043E-03   4.383990790759850E-03
   4.439134606476008E-03   4.494972046005920E-03   4.551511834063111E-03
   4.608762805104498E-03   4.666733904710784E-03   4.725434190984223E-03
   4.784872835963976E-03   4.845059127059246E-03   4.906002468500470E-03
   4.967712382808734E-03   5.030198512283704E-03   5.093470620510236E-03
   5.157538593883969E-03   5.222412443156089E-03   5.288102304997534E-03
   5.354618443582863E-03   5.421971252194058E-03   5.490171254844493E-03
   5.559229107923338E-03   5.629155601860635E-03   5.699961662813329E-03
   5.771658354372502E-03   5.844256879292074E-03   5.917768581239268E-03
   5.992204946567075E-03   6.067577606109020E-03   6.143898336996500E-03
   6.221179064498994E-03   6.299431863887403E-03   6.378668962320839E-03
   6.458902740757141E-03   6.540145735887425E-03   6.622410642094971E-03
   6.705710313438744E-03   6.790057765661865E-03   6.875466178225353E-03
   6.961948896367430E-03   7.049519433188761E-03   7.138191471763885E-03
   7.227978867279237E-03   7.318895649198040E-03   7.410956023452437E-03
   7.504174374663205E-03   7.598565268387376E-03   7.694143453394134E-03
   7.790923863969343E-03   7.888921622249053E-03   7.988152040582374E-03
   8.088630623924059E-03   8.190373072257178E-03   8.293395283046285E-03
   8.397713353721407E-03   8.503343584193329E-03   8.610302479400469E-03
   8.718606751887811E-03   8.828273324418281E-03   8.939319332616952E-03
   9.051762127648529E-03   9.165619278928505E-03   9.280908576868412E-03
   9.397648035655610E-03   9.515855896068041E-03   9.635550628324392E-03
   9.756750934970101E-03   9.879475753799660E-03   1.000374426081570E-02
   1.012957587322527E-02   1.025699025247382E-02   1.038600730731732E-02
   1.051664719693308E-02   1.064893033406965E-02   1.078287738823634E-02
   1.091850928893287E-02   1.105584722891968E-02   1.119491266752930E-02
   1.133572733401946E-02   1.147831323096826E-02   1.162269263771222E-02
   1.176888811382737E-02   1.191692250265430E-02   1.206681893486743E-02
   1.221860083208927E-02   1.237229191055006E-02   1.252791618479350E-02
   1.268549797142905E-02   1.284506189293149E-02   1.300663288148817E-02
   1.317023618289479E-02   1.333589736050005E-02   1.350364229919997E-02
   1.367349720948252E-02   1.384548863152299E-02   1.401964343933101E-02
   1.419598884494961E-02   1.437455240270719E-02   1.455536201352295E-02
   1.473844592926644E-02   1.492383275717198E-02   1.511155146430860E-02
   1.530163138210621E-02   1.549410221093868E-02   1.568899402476461E-02
   1.588633727582641E-02   1.608616279940857E-02   1.628850181865569E-02
   1.649338594945118E-02   1.670084720535733E-02   1.691091800261746E-02
   1.712363116522102E-02   1.733901993003245E-02   1.755711795198446E-02
   1.777795930933670E-02   1.800157850900056E-02   1.822801049193095E-02
   1.845729063858588E-02   1.868945477445474E-02   1.892453917565609E-02
   1.916258057460592E-02   1.940361616575710E-02   1.964768361141115E-02
   1.989482104760299E-02   2.014506709005986E-02   2.039846084023501E-02
   2.065504189141744E-02   2.091485033491840E-02   2.117792676633579E-02
   2.144431229189725E-02   2.171404853488311E-02   2.198717764213012E-02
   2.226374229061697E-02   2.254378569413267E-02   2.282735161002877E-02
   2.311448434605654E-02   2.340522876729016E-02   2.369963030313698E-02
   2.399773495443594E-02   2.429958930064530E-02   2.460524050712079E-02
   2.491473633248526E-02   2.522812513609111E-02   2.554545588557649E-02
   2.586677816451662E-02   2.619214218017134E-02   2.652159877133003E-02
   2.685519941625535E-02   2.719299624072679E-02   2.753504202618543E-02
   2.788139021798113E-02   2.823209493372352E-02   2.858721097173796E-02
   2.894679381962785E-02   2.931089966294478E-02   2.967958539396752E-02
   3.005290862059166E-02   3.043092767533089E-02   3.081370162443159E-02
   3.120129027710207E-02   3.159375419485786E-02   3.199115470098459E-02
   3.239355389011987E-02   3.280101463795566E-02   3.321360061106284E-02
   3.363137627683907E-02   3.405440691358213E-02   3.448275862068967E-02
   3.491649832898741E-02   3.535569381118722E-02   3.580041369247675E-02
   3.625072746124223E-02   3.670670547992620E-02   3.716841899602179E-02
   3.763594015320525E-02   3.810934200260856E-02   3.858869851423383E-02
   3.907408458851127E-02   3.956557606800250E-02   4.006324974925116E-02
   4.056718339478244E-02   4.107745574525374E-02   4.159414653175797E-02
   4.211733648828173E-02   4.264710736432018E-02   4.318354193765051E-02
   4.372672402726620E-02   4.427673850647387E-02   4.483367131615488E-02
   4.539760947819387E-02   4.596864110907598E-02   4.654685543365530E-02
   4.713234279909645E-02   4.772519468899145E-02   4.832550373765427E-02
   4.893336374459509E-02   4.954886968917672E-02   5.017211774545524E-02
   5.080320529720745E-02   5.144223095314727E-02   5.208929456233356E-02
   5.274449722977170E-02   5.340794133221151E-02   5.407973053414377E-02
   5.475996980399807E-02   5.544876543054426E-02   5.614622503950037E-02
   5.685245761034927E-02   5.756757349336702E-02   5.829168442686525E-02
   5.902490355465052E-02   5.976734544370331E-02   6.051912610207929E-02
   6.128036299703583E-02   6.205117507338653E-02   6.283168277208655E-02
   6.362200804905174E-02   6.442227439421459E-02   6.523260685081966E-02
   6.605313203496196E-02   6.688397815537085E-02   6.772527503344303E-02
   6.857715412352734E-02   6.943974853346474E-02   7.031319304538676E-02
   7.119762413677543E-02   7.209318000178816E-02   7.300000057285089E-02
   7.391822754252277E-02   7.484800438563598E-02   7.578947638171388E-02
   7.674279063767134E-02   7.770809611080033E-02   7.868554363204498E-02
   7.967528592956914E-02   8.067747765262041E-02   8.169227539569453E-02
   8.271983772300341E-02   8.376032519325136E-02   8.481390038472245E-02
   8.588072792068385E-02   8.696097449510859E-02   8.805480889872166E-02
   8.916240204537404E-02   9.028392699874835E-02   9.141955899940027E-02
   9.256947549214040E-02   9.373385615376022E-02   9.491288292110708E-02
   9.610674001951212E-02   9.731561399157593E-02   9.853969372631605E-02
   9.977917048868144E-02   1.010342379494380E-01   1.023050922154300E-01
   1.035919318602219E-01   1.048949579551264E-01   1.062143741006218E-01
   1.075503864581653E-01   1.089032037824058E-01   1.102730374538027E-01
   1.116601015116539E-01   1.130646126875405E-01   1.144867904391913E-01
   1.159268569847735E-01   1.173850373376145E-01   1.188615593413613E-01
   1.203566537055808E-01   1.218705540418094E-01   1.234034969000545E-01
   1.249557218057567E-01   1.265274712972154E-01   1.281189909634864E-01
   1.297305294827556E-01   1.313623386611953E-01   1.330146734723095E-01
   1.346877920967743E-01   1.363819559627786E-01   1.380974297868733E-01
   1.398344816153337E-01   1.415933828660419E-01   1.433744083708969E-01
   1.451778364187573E-01   1.470039487989248E-01   1.488530308451740E-01
   1.507253714803365E-01   1.526212632614461E-01   1.545410024254506E-01
   1.564848889355002E-01   1.584532265278169E-01   1.604463227591542E-01
   1.624644890548532E-01   1.645080407575036E-01   1.665772971762166E-01
   1.686725816365175E-01   1.707942215308661E-01   1.729425483698125E-01
   1.751178978337960E-01   1.773206098255961E-01   1.795510285234432E-01
   1.818095024347963E-01   1.840963844507993E-01   1.864120319014196E-01
   1.887568066112828E-01   1.911310749562078E-01   1.935352079204538E-01
   1.959695811546878E-01   1.984345750346805E-01   2.009305747207406E-01
   2.034579702178972E-01   2.060171564368389E-01   2.086085332556189E-01
   2.112325055821375E-01   2.138894834174092E-01   2.165798819196265E-01
   2.193041214690288E-01   2.220626277335883E-01   2.248558317355212E-01
   2.276841699186355E-01   2.305480842165266E-01   2.334480221216303E-01
   2.363844367551442E-01   2.393577869378289E-01   2.423685372616999E-01
   2.454171581626206E-01   2.485041259938094E-01   2.516299231002702E-01
   2.547950378941605E-01   2.579999649311063E-01   2.612452049874776E-01
   2.645312651386357E-01   2.678586588381647E-01   2.712279059980998E-01
   2.746395330701647E-01   2.780940731280302E-01   2.815920659506088E-01
   2.851340581063956E-01   2.887206030388713E-01   2.923522611529786E-01
   2.960295999026861E-01   2.997531938796555E-01   3.035236249030211E-01
   3.073414821103014E-01   3.112073620494527E-01   3.151218687720803E-01
   3.190856139278241E-01   3.230992168599288E-01   3.271633047020183E-01
   3.312785124760865E-01   3.354454831917202E-01   3.396648679465720E-01
   3.439373260280940E-01   3.482635250165537E-01   3.526441408893450E-01
   3.570798581266102E-01   3.615713698181924E-01   3.661193777719314E-01
   3.707245926233227E-01   3.753877339465567E-01   3.801095303669519E-01
   3.848907196748060E-01   3.897320489406755E-01   3.946342746321078E-01
   3.995981627318413E-01   4.046244888574901E-01   4.097140383827381E-01
   4.148676065600531E-01   4.200859986449476E-01   4.253700300218021E-01
   4.307205263312694E-01   4.361383235992839E-01   4.416242683676911E-01
   4.471792178265221E-01   4.528040399479318E-01   4.584996136218203E-01
   4.642668287931619E-01   4.701065866010609E-01   4.760197995195553E-01
   4.820073915001945E-01   4.880702981164072E-01   4.942094667096875E-01
   5.004258565376181E-01   5.067204389237568E-01   5.130941974094084E-01
   5.195481279073032E-01   5.260832388572126E-01   5.327005513835181E-01
   5.394010994547648E-01   5.461859300452215E-01   5.530561032984715E-01
   5.600126926930635E-01   5.670567852102435E-01   5.741894815037983E-01
   5.814118960720359E-01   5.887251574319262E-01   5.961304082954362E-01
   6.036288057480790E-01   6.112215214297121E-01   6.189097417176086E-01
   6.266946679118299E-01   6.345775164229329E-01   6.425595189620350E-01
   6.506419227332721E-01   6.588259906286779E-01   6.671130014255110E-01
   6.755042499860691E-01   6.840010474600114E-01   6.926047214892301E-01
   7.013166164152973E-01   7.101380934895185E-01   7.190705310856351E-01
   7.281153249151940E-01   7.372738882456329E-01   7.465476521211059E-01
   7.559380655860852E-01   7.654465959117809E-01   7.750747288254008E-01
   7.848239687423013E-01   7.946958390010548E-01   8.046918821014731E-01
   8.148136599456286E-01   8.250627540819018E-01   8.354407659521030E-01
   8.459493171417022E-01   8.565900496332016E-01   8.673646260627026E-01
   8.782747299796929E-01   8.893220661101060E-01   9.005083606226889E-01
   9.118353613987173E-01   9.233048383051081E-01   9.349185834709623E-01
   9.466784115675901E-01   9.585861600920580E-01   9.706436896542985E-01
   9.828528842678377E-01   9.952156516441736E-01   1.007733923490860E+00
   1.020409655813344E+00   1.033244829220587E+00   1.046241449234550E+00
   1.059401546603550E+00   1.072727177619575E+00   1.086220424439585E+00
   1.099883395410845E+00   1.113718225400369E+00   1.127727076128489E+00
   1.141912136506632E+00   1.156275622979343E+00   1.170819779870606E+00
   1.185546879734524E+00   1.200459223710415E+00   1.215559141882364E+00
   1.230848993643307E+00   1.246331168063688E+00   1.262008084264759E+00
   1.277882191796572E+00   1.293955971020725E+00   1.310231933497924E+00
   1.326712622380419E+00   1.343400612809379E+00   1.360298512317260E+00
   1.377408961235240E+00   1.394734633105773E+00   1.412278235100339E+00
   1.430042508442440E+00   1.448030228835931E+00   1.466244206898717E+00
   1.484687288601929E+00   1.503362355714605E+00   1.522272326253974E+00
   1.541420154941409E+00   1.560808833664096E+00   1.580441391942534E+00
   1.600320897403896E+00   1.620450456261355E+00   1.640833213799438E+00
   1.661472354865477E+00   1.682371104367256E+00   1.703532727776904E+00
   1.724960531641130E+00   1.746657864097885E+00   1.768628115399508E+00
   1.790874718442464E+00   1.813401149303741E+00   1.836210927783988E+00
   1.859307617957502E+00   1.882694828729113E+00   1.906376214398084E+00
   1.930355475229109E+00   1.954636358030477E+00   1.979222656739525E+00
   2.004118213015449E+00   2.029326916839566E+00   2.054852707123138E+00
   2.080699572322827E+00   2.106871551063910E+00   2.133372732771308E+00
   2.160207258308581E+00   2.187379320624943E+00   2.214893165410410E+00
   2.242753091759207E+00   2.270963452841509E+00   2.299528656583628E+00
   2.328453166356764E+00   2.357741501674419E+00   2.387398238898574E+00
   2.417428011954756E+00   2.447835513056101E+00   2.478625493436520E+00
   2.509802764093092E+00   2.541372196537788E+00   2.573338723558654E+00
   2.605707339990575E+00   2.638483103495720E+00   2.671671135353824E+00
   2.705276621262385E+00   2.739304812146945E+00   2.773761024981563E+00
   2.808650643619591E+00   2.843979119634932E+00   2.879751973173837E+00
   2.915974793817451E+00   2.952653241455195E+00   2.989793047169135E+00
   3.027400014129478E+00   3.065480018501322E+00   3.104039010362824E+00
   3.143083014634912E+00   3.182618132022686E+00   3.222650539968678E+00
   3.263186493618074E+00   3.304232326796102E+00   3.345794452997705E+00
   3.387879366389658E+00   3.430493642825306E+00   3.473643940872039E+00
   3.517337002851717E+00   3.561579655894167E+00   3.606378813003939E+00
   3.651741474140480E+00   3.697674727311882E+00   3.744185749682403E+00
   3.791281808693918E+00   3.838970263201460E+00   3.887258564623077E+00
   3.936154258104105E+00   3.985664983696130E+00   4.035798477550755E+00
   4.086562573128391E+00   4.137965202422257E+00   4.190014397197758E+00
   4.242718290247470E+00   4.296085116661912E+00   4.350123215116282E+00
   4.404841029173411E+00   4.460247108603068E+00   4.516350110717887E+00
   4.573158801726092E+00   4.630682058101225E+00   4.688928867969137E+00
   4.747908332512369E+00   4.807629667392252E+00   4.868102204188862E+00
   4.929335391859104E+00   4.991338798213138E+00   5.054122111409351E+00
   5.117695141468164E+00   5.182067821804861E+00   5.247250210781711E+00
   5.313252493279613E+00   5.380084982289486E+00   5.447758120523710E+00
   5.516282482047816E+00   5.585668773932702E+00   5.655927837927650E+00
   5.727070652154349E+00   5.799108332822262E+00   5.872052135965557E+00
   5.945913459201874E+00   6.020703843513252E+00   6.096434975049394E+00
   6.173118686953684E+00   6.250766961212116E+00   6.329391930525516E+00
   6.409005880205315E+00   6.489621250093120E+00   6.571250636504488E+00
   6.653906794197124E+00   6.737602638363826E+00   6.822351246650537E+00
   6.908165861199718E+00   6.995059890719485E+00   7.083046912578737E+00
   7.172140674928642E+00   7.262355098850846E+00   7.353704280532622E+00
   7.446202493469459E+00   7.539864190695317E+00   7.634704007040937E+00
   7.730736761420589E+00   7.827977459147521E+00   7.926441294278588E+00
   8.026143651988354E+00   8.127100110973055E+00   8.229326445884816E+00
   8.332838629796440E+00   8.437652836697263E+00   8.543785444020356E+00
   8.651253035201538E+00   8.760072402270588E+00   8.870260548474999E+00
   8.981834690936793E+00   9.094812263342734E+00   9.209210918668349E+00
   9.325048531936302E+00   9.442343203009329E+00   9.561113259418422E+00
   9.681377259226535E+00   9.803153993928309E+00   9.926462491386314E+00
   1.005132201880414E+01   1.017775208573698E+01   1.030577244714002E+01
   1.043540310645517E+01   1.056666431873670E+01   1.069957659381608E+01
   1.083416069950671E+01   1.097043766484890E+01   1.110842878339574E+01
   1.124815561654028E+01   1.138963999688444E+01   1.153290403165053E+01
   1.167797010613543E+01   1.182486088720843E+01   1.197359932685292E+01
   1.212420866575272E+01   1.227671243692343E+01   1.243113446938958E+01
   1.258749889190789E+01   1.274583013673755E+01   1.290615294345766E+01
   1.306849236283296E+01   1.323287376072801E+01   1.339932282207065E+01
   1.356786555486538E+01   1.373852829425710E+01   1.391133770664605E+01
   1.408632079385450E+01   1.426350489734582E+01   1.444291770249669E+01
   1.462458724292292E+01   1.480854190485980E+01   1.499481043159754E+01
   1.518342192797238E+01   1.537440586491438E+01   1.556779208405226E+01
   1.576361080237618E+01   1.596189261695929E+01   1.616266850973852E+01
   1.636596985235560E+01   1.657182841105895E+01   1.678027635166716E+01
   1.699134624459506E+01   1.720507106994283E+01   1.742148422264928E+01
   1.764061951770980E+01   1.786251119546008E+01   1.808719392692622E+01
   1.831470281924211E+01   1.854507342113507E+01   1.877834172848032E+01
   1.901454418992549E+01   1.925371771258573E+01   1.949589966781052E+01
   1.974112789702315E+01   1.998944071763333E+01   2.024087692902446E+01
   2.049547581861615E+01   2.075327716800284E+01   2.101432125916992E+01
   2.127864888078771E+01   2.154630133458488E+01   2.181732044180186E+01
   2.209174854972555E+01   2.236962853830615E+01   2.265100382685723E+01
   2.293591838084008E+01   2.322441671873343E+01   2.351654391898950E+01
   2.381234562707771E+01   2.411186806261675E+01   2.441515802659655E+01
   2.472226290869103E+01   2.503323069466281E+01   2.534810997386115E+01
   2.566694994681404E+01   2.598980043291593E+01   2.631671187821212E+01
   2.664773536328103E+01   2.698292261121572E+01   2.732232599570559E+01
   2.766599854921999E+01   2.801399397129462E+01   2.836636663692215E+01
   2.872317160504855E+01   2.908446462717598E+01   2.945030215607422E+01
   2.982074135460144E+01   3.019584010463607E+01   3.057565701612098E+01
   3.096025143622132E+01   3.134968345859769E+01   3.174401393279590E+01
   3.214330447375477E+01   3.254761747143375E+01   3.295701610056130E+01
   3.337156433050612E+01   3.379132693527256E+01   3.421636950362159E+01
   3.464675844931934E+01   3.508256102151418E+01   3.552384531524465E+01
   3.597068028207945E+01   3.642313574089121E+01   3.688128238876597E+01
   3.734519181204952E+01   3.781493649753309E+01   3.829058984377949E+01
   3.877222617259174E+01   3.925992074062621E+01   3.975374975115133E+01
   4.025379036595470E+01   4.076012071739972E+01   4.127281992063391E+01
   4.179196808595095E+01   4.231764633130782E+01   4.284993679499989E+01