<UPF version="2.0.1">
  <PP_INFO>
    Generated using "atomic" code by A. Dal Corso  v.7.2
    Author: ADC
    Generation date: 31May2024
    Pseudopotential type: USPP
    Element: Er
    Functional: SLA-PW-BEEX-BEEC
    Suggested minimum cutoff for wavefunctions: 136. Ry
    Suggested minimum cutoff for charge density: 578. Ry
    The Pseudo was generated with a Scalar-Relativistic Calculation
    Local Potential by smoothing AE potential with Bessel fncs, cutoff radius:   1.7000
    Valence configuration: 
    nl pn  l   occ       Rcut    Rcut US       E pseu
    5S  1  0  2.00      1.200      1.500    -3.837462
    6S  2  0  2.00      1.200      1.500    -0.293686
    5P  2  1  6.00      1.300      1.800    -1.962823
    4D  3  2 10.00      1.000      1.100   -12.217273
    5D  4  2  0.00      1.000      1.100    -0.082300
    4F  4  3 12.00      1.000      1.200    -0.267869
    Generation configuration:
    5S  1  0  2.00      1.200      1.500    -3.837502
    6S  2  0  2.00      1.200      1.500    -0.293697
    5P  2  1  6.00      1.300      1.800    -1.962854
    6P  3  1  0.00      1.300      1.800     0.300000
    4D  3  2 10.00      1.000      1.100   -12.217324
    5D  4  2  0.00      1.000      1.100    -0.082319
    4F  4  3 12.00      1.000      1.200    -0.267915
    4F  4  3  0.00      1.000      1.200     1.000000
    Pseudization used: troullier-martins
    <PP_INPUTFILE>
@input
title='Er',
zed=68.0,
rel=1,
config='[Xe] 4f12.0 5d0.0 6s2. 6p0.',
iswitch=3,
dft='SLA-PW-BEEX-BEEC'
/
@inputp
lpaw=.false.,
pseudotype=3,
file_pseudopw='Er.beef-spdfn-rrkjus_psl.1.0.0.UPF',
author='ADC',
lloc=-1,
rcloc=1.7,
which_augfun='PSQ',
rmatch_augfun_nc=.true.,
nlcc=.true.,
new_core_ps=.true.,
rcore=1.2,
tm=.true.
/
8
5S  1  0  2.00  0.00  1.20  1.50  0.0
6S  2  0  2.00  0.00  1.20  1.50  0.0
5P  2  1  6.00  0.00  1.30  1.80  0.0
6P  3  1  0.00  0.30  1.30  1.80  0.0
4D  3  2 10.00  0.00  1.00  1.10  0.0
5D  4  2  0.00  0.00  1.00  1.10  0.0
4F  4  3 12.00  0.00  1.00  1.20  0.0
4F  4  3  0.00  1.00  1.00  1.20  0.0
    </PP_INPUTFILE>
  </PP_INFO>
    <!-- END OF HUMAN READABLE SECTION -->
  <PP_HEADER generated="Generated using 'atomic' code by A. Dal Corso  v.7.2" author="ADC" date="31May2024" comment="" element="Er" pseudo_type="USPP" relativistic="scalar" is_ultrasoft="true" is_paw="false" is_coulomb="false" has_so="false" has_wfc="false" has_gipaw="false" paw_as_gipaw="false" core_correction="true" functional="SLA-PW-BEEX-BEEC" z_valence="32.0000000000000" total_psenergy="-1114.91920798819" wfc_cutoff="136.440742976901" rho_cutoff="578.382823117496" l_max="3" l_max_rho="6" l_local="-1" mesh_size="1267" number_of_wfc="6" number_of_proj="8"/>
  <PP_MESH mesh="1267" dx="1.250000000000000E-002" xmin="-7.00000000000000" rmax="100.000000000000" zmesh="68.0000000000000">
    <PP_R>
   1.341002890521347E-05   1.357870630395621E-05   1.374950540318503E-05
   1.392245289060668E-05   1.409757578961794E-05   1.427490146352807E-05
   1.445445761983439E-05   1.463627231455164E-05   1.482037395659574E-05
   1.500679131222286E-05   1.519555350952407E-05   1.538669004297674E-05
   1.558023077805309E-05   1.577620595588672E-05   1.597464619799791E-05
   1.617558251107821E-05   1.637904629183534E-05   1.658506933189900E-05
   1.679368382278835E-05   1.700492236094203E-05   1.721881795281139E-05
   1.743540402001783E-05   1.765471440457501E-05   1.787678337417669E-05
   1.810164562755119E-05   1.832933629988308E-05   1.855989096830315E-05
   1.879334565744742E-05   1.902973684508600E-05   1.926910146782294E-05
   1.951147692686752E-05   1.975690109387834E-05   2.000541231688079E-05
   2.025704942625907E-05   2.051185174082351E-05   2.076985907395414E-05
   2.103111173982168E-05   2.129565055968670E-05   2.156351686827799E-05
   2.183475252025128E-05   2.210939989672901E-05   2.238750191192252E-05
   2.266910201983750E-05   2.295424422106371E-05   2.324297306965025E-05
   2.353533368006712E-05   2.383137173425451E-05   2.413113348876068E-05
   2.443466578196962E-05   2.474201604141972E-05   2.505323229121432E-05
   2.536836315952562E-05   2.568745788619294E-05   2.601056633041648E-05
   2.633773897854808E-05   2.666902695197963E-05   2.700448201513099E-05
   2.734415658353825E-05   2.768810373204378E-05   2.803637720308936E-05
   2.838903141511337E-05   2.874612147105393E-05   2.910770316695877E-05
   2.947383300070351E-05   2.984456818081962E-05   3.021996663543322E-05
   3.060008702131661E-05   3.098498873305345E-05   3.137473191231924E-05
   3.176937745727874E-05   3.216898703210125E-05   3.257362307659584E-05
   3.298334881596769E-05   3.339822827069716E-05   3.381832626654317E-05
   3.424370844467226E-05   3.467444127191519E-05   3.511059205115255E-05
   3.555222893183093E-05   3.599942092061152E-05   3.645223789215233E-05
   3.691075060002645E-05   3.737503068777733E-05   3.784515070011324E-05
   3.832118409424263E-05   3.880320525135179E-05   3.929128948822721E-05
   3.978551306902392E-05   4.028595321718189E-05   4.079268812749248E-05
   4.130579697831636E-05   4.182535994395541E-05   4.235145820718005E-05
   4.288417397191423E-05   4.342359047608009E-05   4.396979200460383E-05
   4.452286390258552E-05   4.508289258863446E-05   4.564996556837219E-05
   4.622417144810559E-05   4.680559994867157E-05   4.739434191945627E-05
   4.799048935259042E-05   4.859413539732327E-05   4.920537437457753E-05
   4.982430179168693E-05   5.045101435731962E-05   5.108560999658902E-05
   5.172818786635483E-05   5.237884837071661E-05   5.303769317670192E-05
   5.370482523015211E-05   5.438034877180783E-05   5.506436935359677E-05
   5.575699385512659E-05   5.645833050038476E-05   5.716848887464897E-05
   5.788757994161004E-05   5.861571606071016E-05   5.935301100469939E-05
   6.009957997741274E-05   6.085553963177113E-05   6.162100808800852E-05
   6.239610495212853E-05   6.318095133459323E-05   6.397566986924660E-05
   6.478038473247656E-05   6.559522166261768E-05   6.642030797959805E-05
   6.725577260483343E-05   6.810174608137126E-05   6.895836059428840E-05
   6.982574999134526E-05   7.070404980389985E-05   7.159339726808475E-05
   7.249393134625076E-05   7.340579274867965E-05   7.432912395557080E-05
   7.526406923930376E-05   7.621077468698125E-05   7.716938822325566E-05
   7.814005963344229E-05   7.912294058692382E-05   8.011818466084896E-05
   8.112594736412899E-05   8.214638616173677E-05   8.317966049931041E-05
   8.422593182806743E-05   8.528536363003157E-05   8.635812144357723E-05
   8.744437288929550E-05   8.854428769618469E-05   8.965803772817115E-05
   9.078579701096334E-05   9.192774175924355E-05   9.308405040420217E-05
   9.425490362141739E-05   9.544048435908658E-05   9.664097786661205E-05
   9.785657172354667E-05   9.908745586890393E-05   1.003338226308357E-04
   1.015958667566843E-04   1.028737854434120E-04   1.041677783684135E-04
   1.054780477207162E-04   1.068047982325719E-04   1.081482372114476E-04
   1.095085745724168E-04   1.108860228709598E-04   1.122807973361759E-04
   1.136931159044128E-04   1.151231992533202E-04   1.165712708363309E-04
   1.180375569175758E-04   1.195222866072384E-04   1.210256918973534E-04
   1.225480076980560E-04   1.240894718742873E-04   1.256503252829609E-04
   1.272308118105976E-04   1.288311784114328E-04   1.304516751460038E-04
   1.320925552202224E-04   1.337540750249385E-04   1.354364941760020E-04
   1.371400755548283E-04   1.388650853494737E-04   1.406117930962281E-04
   1.423804717217306E-04   1.441713975856151E-04   1.459848505236913E-04
   1.478211138916704E-04   1.496804746094394E-04   1.515632232058932E-04
   1.534696538643309E-04   1.554000644684214E-04   1.573547566487489E-04
   1.593340358299435E-04   1.613382112784041E-04   1.633675961506221E-04
   1.654225075421127E-04   1.675032665369614E-04   1.696101982579946E-04
   1.717436319175800E-04   1.739039008690679E-04   1.760913426588768E-04
   1.783062990792368E-04   1.805491162215948E-04   1.828201445306924E-04
   1.851197388593235E-04   1.874482585237804E-04   1.898060673599981E-04
   1.921935337804043E-04   1.946110308314842E-04   1.970589362520710E-04
   1.995376325323667E-04   2.020475069737080E-04   2.045889517490828E-04
   2.071623639644077E-04   2.097681457205773E-04   2.124067041762923E-04
   2.150784516116798E-04   2.177838054927120E-04   2.205231885364368E-04
   2.232970287770286E-04   2.261057596326681E-04   2.289498199732660E-04
   2.318296541890368E-04   2.347457122599354E-04   2.376984498259687E-04
   2.406883282583886E-04   2.437158147317832E-04   2.467813822970731E-04
   2.498855099554274E-04   2.530286827331086E-04   2.562113917572576E-04
   2.594341343326348E-04   2.626974140193243E-04   2.660017407114162E-04
   2.693476307166791E-04   2.727356068372336E-04   2.761661984512413E-04
   2.796399415956214E-04   2.831573790498078E-04   2.867190604205588E-04
   2.903255422278350E-04   2.939773879917563E-04   2.976751683206528E-04
   3.014194610002244E-04   3.052108510838197E-04   3.090499309838534E-04
   3.129373005643702E-04   3.168735672347760E-04   3.208593460447467E-04
   3.248952597803300E-04   3.289819390612588E-04   3.331200224394848E-04
   3.373101564989549E-04   3.415529959566408E-04   3.458492037648398E-04
   3.501994512147629E-04   3.546044180414246E-04   3.590647925298535E-04
   3.635812716226382E-04   3.681545610288257E-04   3.727853753341904E-04
   3.774744381128887E-04   3.822224820405198E-04   3.870302490086076E-04
   3.918984902405219E-04   3.968279664088601E-04   4.018194477543025E-04
   4.068737142059644E-04   4.119915555032621E-04   4.171737713193103E-04
   4.224211713858740E-04   4.277345756198894E-04   4.331148142515778E-04
   4.385627279541722E-04   4.440791679752721E-04   4.496649962698543E-04
   4.553210856349543E-04   4.610483198460425E-04   4.668475937951170E-04
   4.727198136305304E-04   4.786658968985798E-04   4.846867726868730E-04
   4.907833817695012E-04   4.969566767540376E-04   5.032076222303829E-04
   5.095371949214856E-04   5.159463838359565E-04   5.224361904226024E-04
   5.290076287269069E-04   5.356617255494740E-04   5.423995206064709E-04
   5.492220666920827E-04   5.561304298430159E-04   5.631256895050685E-04
   5.702089387017942E-04   5.773812842052914E-04   5.846438467091370E-04
   5.919977610034978E-04   5.994441761524445E-04   6.069842556734933E-04
   6.146191777194105E-04   6.223501352622988E-04   6.301783362800028E-04
   6.381050039448585E-04   6.461313768148150E-04   6.542587090269636E-04
   6.624882704934974E-04   6.708213471001383E-04   6.792592409070606E-04
   6.878032703523379E-04   6.964547704579548E-04   7.052150930384041E-04
   7.140856069119114E-04   7.230676981143174E-04   7.321627701156462E-04
   7.413722440394026E-04   7.506975588846237E-04   7.601401717507263E-04
   7.697015580651825E-04   7.793832118140563E-04   7.891866457754432E-04
   7.991133917558455E-04   8.091650008295181E-04   8.193430435808297E-04
   8.296491103496672E-04   8.400848114799307E-04   8.506517775711542E-04
   8.613516597332872E-04   8.721861298446875E-04   8.831568808133526E-04
   8.942656268414407E-04   9.055141036931211E-04   9.169040689657857E-04
   9.284373023646824E-04   9.401156059809941E-04   9.519408045734199E-04
   9.639147458532994E-04   9.760393007733177E-04   9.883163638198498E-04
   1.000747853308974E-03   1.013335711686214E-03   1.026081905830054E-03
   1.038988427359259E-03   1.052057292944077E-03   1.065290544621346E-03
   1.078690250113561E-03   1.092258503151969E-03   1.105997423803712E-03
   1.119909158803093E-03   1.133995881887011E-03   1.148259794134606E-03
   1.162703124311187E-03   1.177328129216479E-03   1.192137094037254E-03
   1.207132332704394E-03   1.222316188254450E-03   1.237691033195741E-03
   1.253259269879071E-03   1.269023330873096E-03   1.284985679344418E-03
   1.301148809442461E-03   1.317515246689187E-03   1.334087548373713E-03
   1.350868303951896E-03   1.367860135450934E-03   1.385065697879069E-03
   1.402487679640436E-03   1.420128802955130E-03   1.437991824284560E-03
   1.456079534762152E-03   1.474394760629467E-03   1.492940363677810E-03
   1.511719241695388E-03   1.530734328920098E-03   1.549988596498006E-03
   1.569485052947591E-03   1.589226744629843E-03   1.609216756224249E-03
   1.629458211210793E-03   1.649954272357997E-03   1.670708142217114E-03
   1.691723063622536E-03   1.713002320198485E-03   1.734549236872096E-03
   1.756367180392936E-03   1.778459559859069E-03   1.800829827249735E-03
   1.823481477964724E-03   1.846418051370548E-03   1.869643131353465E-03
   1.893160346879474E-03   1.916973372561349E-03   1.941085929232797E-03
   1.965501784529860E-03   1.990224753479599E-03   2.015258699096213E-03
   2.040607532984637E-03   2.066275215951738E-03   2.092265758625200E-03
   2.118583222080196E-03   2.145231718473933E-03   2.172215411688189E-03
   2.199538517979928E-03   2.227205306640097E-03   2.255220100660713E-03
   2.283587277410338E-03   2.312311269318054E-03   2.341396564566034E-03
   2.370847707790835E-03   2.400669300793506E-03   2.430866003258626E-03
   2.461442533482391E-03   2.492403669109855E-03   2.523754247881452E-03
   2.555499168388899E-03   2.587643390840611E-03   2.620191937836743E-03
   2.653149895153983E-03   2.686522412540216E-03   2.720314704519181E-03
   2.754532051205251E-03   2.789179799128461E-03   2.824263362069914E-03
   2.859788221907700E-03   2.895759929473443E-03   2.932184105419636E-03
   2.969066441097875E-03   3.006412699448148E-03   3.044228715899304E-03
   3.082520399280851E-03   3.121293732746223E-03   3.160554774707657E-03
   3.200309659782837E-03   3.240564599753440E-03   3.281325884535734E-03
   3.322599883163396E-03   3.364393044782684E-03   3.406711899660130E-03
   3.449563060202907E-03   3.492953221992032E-03   3.536889164828562E-03
   3.581377753792953E-03   3.626425940317743E-03   3.672040763273729E-03
   3.718229350069802E-03   3.764998917766620E-03   3.812356774204289E-03
   3.860310319144226E-03   3.908867045425392E-03   3.958034540135057E-03
   4.007820485794305E-03   4.058232661558430E-03   4.109278944432462E-03
   4.160967310501955E-03   4.213305836179267E-03   4.266302699465521E-03
   4.319966181228425E-03   4.374304666496186E-03   4.429326645767680E-03
   4.485040716339108E-03   4.541455583647352E-03   4.598580062630205E-03
   4.656423079103725E-03   4.714993671156922E-03   4.774300990563967E-03
   4.834354304214180E-03   4.895162995559995E-03   4.956736566083153E-03
   5.019084636779320E-03   5.082216949661391E-03   5.146143369281699E-03
   5.210873884273365E-03   5.276418608911055E-03   5.342787784691344E-03
   5.409991781932977E-03   5.478041101397251E-03   5.546946375928780E-03
   5.616718372116898E-03   5.687367991977961E-03   5.758906274658811E-03
   5.831344398161662E-03   5.904693681090688E-03   5.978965584420577E-03
   6.054171713287333E-03   6.130323818801596E-03   6.207433799884789E-03
   6.285513705128335E-03   6.364575734676285E-03   6.444632242131609E-03
   6.525695736486471E-03   6.607778884076791E-03   6.690894510561378E-03
   6.775055602925970E-03   6.860275311512478E-03   6.946566952073747E-03
   7.033944007854180E-03   7.122420131696510E-03   7.212009148175093E-03
   7.302725055756025E-03   7.394582028984429E-03   7.487594420699256E-03
   7.581776764275946E-03   7.677143775897296E-03   7.773710356852905E-03
   7.871491595867506E-03   7.970502771458637E-03   8.070759354323921E-03
   8.172277009758406E-03   8.275071600102293E-03   8.379159187219459E-03
   8.484556035007159E-03   8.591278611937295E-03   8.699343593629635E-03
   8.808767865457437E-03   8.919568525185788E-03   9.031762885643207E-03
   9.145368477426769E-03   9.260403051641327E-03   9.376884582673141E-03
   9.494831270998415E-03   9.614261546027169E-03   9.735194068982857E-03
   9.857647735818228E-03   9.981641680167862E-03   1.010719527633783E-02
   1.023432814233297E-02   1.036306014292226E-02   1.049341139274269E-02
   1.062540225944224E-02   1.075905336686238E-02   1.089438559826056E-02
   1.103142009957327E-02   1.117017828272013E-02   1.131068182894957E-02
   1.145295269222655E-02   1.159701310266290E-02   1.174288556999084E-02
   1.189059288708019E-02   1.204015813349974E-02   1.219160467912354E-02
   1.234495618778247E-02   1.250023662096174E-02   1.265747024154497E-02
   1.281668161760527E-02   1.297789562624406E-02   1.314113745747818E-02
   1.330643261817588E-02   1.347380693604232E-02   1.364328656365519E-02
   1.381489798255112E-02   1.398866800736345E-02   1.416462379001209E-02
   1.434279282394607E-02   1.452320294843944E-02   1.470588235294118E-02
   1.489085958147992E-02   1.507816353712396E-02   1.526782348649743E-02
   1.545986906435330E-02   1.565433027820382E-02   1.585123751300929E-02
   1.605062153592577E-02   1.625251350111247E-02   1.645694495459972E-02
   1.666394783921804E-02   1.687355449958930E-02   1.708579768718064E-02
   1.730071056542192E-02   1.751832671488763E-02   1.773868013854384E-02
   1.796180526706133E-02   1.818773696419537E-02   1.841651053223331E-02
   1.864816171751059E-02   1.888272671599621E-02   1.912024217894840E-02
   1.936074521864150E-02   1.960427341416475E-02   1.985086481729417E-02
   2.010055795843819E-02   2.035339185265812E-02   2.060940600576432E-02
   2.086864042048909E-02   2.113113560273713E-02   2.139693256791473E-02
   2.166607284733847E-02   2.193859849472457E-02   2.221455209275990E-02
   2.249397675975558E-02   2.277691615638432E-02   2.306341449250249E-02
   2.335351653405800E-02   2.364726761008505E-02   2.394471361978692E-02
   2.424590103970778E-02   2.455087693099476E-02   2.485968894675136E-02
   2.517238533948331E-02   2.548901496863817E-02   2.580962730823970E-02
   2.613427245461822E-02   2.646300113423837E-02   2.679586471162514E-02
   2.713291519738972E-02   2.747420525635622E-02   2.781978821579074E-02
   2.816971807373378E-02   2.852404950743757E-02   2.888283788190953E-02
   2.924613925856313E-02   2.961401040397761E-02   2.998650879876788E-02
   3.036369264656599E-02   3.074562088311554E-02   3.113235318548052E-02
   3.152394998137000E-02   3.192047245858005E-02   3.232198257455445E-02
   3.272854306606571E-02   3.314021745901779E-02   3.355707007837212E-02
   3.397916605819860E-02   3.440657135185282E-02   3.483935274228149E-02
   3.527757785245734E-02   3.572131515594543E-02   3.617063398760222E-02
   3.662560455440929E-02   3.708629794644337E-02   3.755278614798424E-02
   3.802514204876246E-02   3.850343945534856E-02   3.898775310268541E-02
   3.947815866576575E-02   3.997473277145656E-02   4.047755301047214E-02
   4.098669794949782E-02   4.150224714346620E-02   4.202428114798772E-02
   4.255288153193768E-02   4.308813089020151E-02   4.363011285658042E-02
   4.417891211685934E-02   4.473461442203919E-02   4.529730660173577E-02
   4.586707657774697E-02   4.644401337779072E-02   4.702820714941584E-02
   4.761974917408768E-02   4.821873188145111E-02   4.882524886377278E-02
   4.943939489056515E-02   5.006126592339442E-02   5.069095913087465E-02
   5.132857290385063E-02   5.197420687077164E-02   5.262796191325853E-02
   5.328994018186682E-02   5.396024511204774E-02   5.463898144031037E-02
   5.532625522058694E-02   5.602217384080386E-02   5.672684603966142E-02
   5.744038192362432E-02   5.816289298412616E-02   5.889449211499009E-02
   5.963529363006877E-02   6.038541328110610E-02   6.114496827582367E-02
   6.191407729623474E-02   6.269286051718852E-02   6.348143962514774E-02
   6.427993783720236E-02   6.508847992032259E-02   6.590719221085393E-02
   6.673620263425742E-02   6.757564072509839E-02   6.842563764728637E-02
   6.928632621456976E-02   7.015784091128831E-02   7.104031791338648E-02
   7.193389510969128E-02   7.283871212345761E-02   7.375491033418473E-02
   7.468263289970711E-02   7.562202477856306E-02   7.657323275264487E-02
   7.753640545013374E-02   7.851169336872321E-02   7.949924889913484E-02
   8.049922634892943E-02   8.151178196661803E-02   8.253707396607589E-02
   8.357526255126391E-02   8.462650994126078E-02   8.569098039560995E-02
   8.676884023998559E-02   8.786025789218128E-02   8.896540388842572E-02
   9.008445091002926E-02   9.121757381036570E-02   9.236494964219363E-02
   9.352675768532111E-02   9.470317947461857E-02   9.589439882838405E-02
   9.710060187706515E-02   9.832197709234225E-02   9.955871531657765E-02
   1.008110097926350E-01   1.020790561940741E-01   1.033630526557249E-01
   1.046631998046470E-01   1.059797007914775E-01   1.073127613221740E-01
   1.086625896901567E-01   1.100293968088542E-01   1.114133962446595E-01
   1.128148042503005E-01   1.142338397986291E-01   1.156707246168367E-01
   1.171256832210997E-01   1.185989429516599E-01   1.200907340083479E-01
   1.216012894865511E-01   1.231308454136363E-01   1.246796407858291E-01
   1.262479176055573E-01   1.278359209192648E-01   1.294438988557002E-01
   1.310721026646874E-01   1.327207867563842E-01   1.343902087410342E-01
   1.360806294692191E-01   1.377923130726167E-01   1.395255270052725E-01
   1.412805420853898E-01   1.430576325376454E-01   1.448570760360381E-01
   1.466791537472754E-01   1.485241503747067E-01   1.503923542028089E-01
   1.522840571422308E-01   1.541995547754056E-01   1.561391464027355E-01
   1.581031350893582E-01   1.600918277125021E-01   1.621055350094354E-01
   1.641445716260202E-01   1.662092561658763E-01   1.682999112401636E-01
   1.704168635179911E-01   1.725604437774590E-01   1.747309869573442E-01
   1.769288322094344E-01   1.791543229515218E-01   1.814078069210627E-01
   1.836896362295120E-01   1.860001674173417E-01   1.883397615097506E-01
   1.907087840730756E-01   1.931076052719121E-01   1.955365999269528E-01
   1.979961475735544E-01   2.004866325210407E-01   2.030084439127515E-01
   2.055619757868477E-01   2.081476271378795E-01   2.107658019791314E-01
   2.134169094057489E-01   2.161013636586610E-01   2.188195841893065E-01
   2.215719957251734E-01   2.243590283361642E-01   2.271811175017945E-01
   2.300387041792379E-01   2.329322348722268E-01   2.358621617008188E-01
   2.388289424720418E-01   2.418330407514274E-01   2.448749259354434E-01
   2.479550733248388E-01   2.510739641989097E-01   2.542320858907007E-01
   2.574299318631513E-01   2.606680017862008E-01   2.639468016148625E-01
   2.672668436682804E-01   2.706286467097802E-01   2.740327360279267E-01
   2.774796435186013E-01   2.809699077681126E-01   2.845040741373502E-01
   2.880826948470001E-01   2.917063290638284E-01   2.953755429880540E-01
   2.990909099418180E-01   3.028530104587652E-01   3.066624323747562E-01
   3.105197709197151E-01   3.144256288106376E-01   3.183806163457657E-01
   3.223853514999481E-01   3.264404600212007E-01   3.305465755284798E-01
   3.347043396106873E-01   3.389144019269205E-01   3.431774203079812E-01
   3.474940608591651E-01   3.518649980643405E-01   3.562909148913381E-01
   3.607725028986671E-01   3.653104623435713E-01   3.699055022914467E-01
   3.745583407266337E-01   3.792697046646040E-01   3.840403302655585E-01
   3.888709629494529E-01   3.937623575124726E-01   3.987152782449692E-01
   4.037304990508840E-01   4.088088035686718E-01   4.139509852937449E-01
   4.191578477024602E-01   4.244302043776623E-01   4.297688791358081E-01
   4.351747061556908E-01   4.406485301087798E-01   4.461912062912049E-01
   4.518036007573961E-01   4.574865904554070E-01   4.632410633639404E-01
   4.690679186310958E-01   4.749680667148631E-01   4.809424295253849E-01
   4.869919405690048E-01   4.931175450941316E-01   4.993202002389348E-01
   5.056008751809000E-01   5.119605512882655E-01   5.184002222733612E-01
   5.249208943478808E-01   5.315235863801022E-01   5.382093300540883E-01
   5.449791700308911E-01   5.518341641117797E-01   5.587753834035262E-01
   5.658039124857669E-01   5.729208495804704E-01   5.801273067235375E-01
   5.874244099385582E-01   5.948132994127561E-01   6.022951296751444E-01
   6.098710697769231E-01   6.175423034741472E-01   6.253100294126883E-01
   6.331754613155285E-01   6.411398281724049E-01   6.492043744318420E-01
   6.573703601956008E-01   6.656390614155704E-01   6.740117700931396E-01
   6.824897944810735E-01   6.910744592879310E-01   6.997671058850544E-01
   7.085690925161594E-01   7.174817945095653E-01   7.265066044930915E-01
   7.356449326116584E-01   7.448982067476274E-01   7.542678727439077E-01
   7.637553946298745E-01   7.733622548501247E-01   7.830899544961124E-01
   7.929400135406995E-01   8.029139710756512E-01   8.130133855521241E-01
   8.232398350241787E-01   8.335949173953503E-01   8.440802506683270E-01
   8.546974731977652E-01   8.654482439462854E-01   8.763342427436910E-01
   8.873571705494412E-01   8.985187497184319E-01   9.098207242701167E-01
   9.212648601610126E-01   9.328529455606374E-01   9.445867911309103E-01
   9.564682303090737E-01   9.684991195941729E-01   9.806813388371355E-01
   9.930167915345022E-01   1.005507405125855E+00   1.018155131294980E+00
   1.030961946274823E+00   1.043929851156278E+00   1.057060872200869E+00
   1.070357061157348E+00   1.083820495582292E+00   1.097453279164720E+00
   1.111257542054804E+00   1.125235441196704E+00   1.139389160665601E+00
   1.153720912008958E+00   1.168232934592079E+00   1.182927495948019E+00
   1.197806892131885E+00   1.212873448079604E+00   1.228129517971195E+00
   1.243577485598619E+00   1.259219764738245E+00   1.275058799528013E+00
   1.291097064849336E+00   1.307337066713799E+00   1.323781342654734E+00
   1.340432462123712E+00   1.357293026892028E+00   1.374365671457230E+00
   1.391653063454767E+00   1.409157904074808E+00   1.426882928484315E+00
   1.444830906254413E+00   1.463004641793145E+00   1.481406974783664E+00
   1.500040780627938E+00   1.518908970896042E+00   1.538014493781092E+00
   1.557360334559911E+00   1.576949516059479E+00   1.596785099129260E+00
   1.616870183119465E+00   1.637207906365329E+00   1.657801446677489E+00
   1.678654021838515E+00   1.699768890105702E+00   1.721149350720175E+00
   1.742798744422402E+00   1.764720453974198E+00   1.786917904687279E+00
   1.809394564958480E+00   1.832153946811698E+00   1.855199606446650E+00
   1.878535144794543E+00   1.902164208080720E+00   1.926090488394393E+00
   1.950317724265539E+00   1.974849701249052E+00   1.999690252516250E+00
   2.024843259453805E+00   2.050312652270225E+00   2.076102410609956E+00
   2.102216564175206E+00   2.128659193355603E+00   2.155434429865753E+00
   2.182546457390834E+00   2.209999512240309E+00   2.237797884009847E+00
   2.265945916251599E+00   2.294448007152869E+00   2.323308610223347E+00
   2.352532234990981E+00   2.382123447706594E+00   2.412086872057380E+00
   2.442427189889354E+00   2.473149141938906E+00   2.504257528573546E+00
   2.535757210541976E+00   2.567653109733593E+00   2.599950209947536E+00
   2.632653557671424E+00   2.665768262869873E+00   2.699299499782941E+00
   2.733252507734620E+00   2.767632591951478E+00   2.802445124391620E+00
   2.837695544584068E+00   2.873389360478690E+00   2.909532149306846E+00
   2.946129558452821E+00   2.983187306336251E+00   3.020711183305638E+00
   3.058707052543097E+00   3.097180850980508E+00   3.136138590227148E+00
   3.175586357509034E+00   3.215530316620062E+00   3.255976708885105E+00
   3.296931854135251E+00   3.338402151695266E+00   3.380394081383515E+00
   3.422914204524445E+00   3.465969164973803E+00   3.509565690156760E+00
   3.553710592119070E+00   3.598410768591480E+00   3.643673204067505E+00
   3.689504970894773E+00   3.735913230380103E+00   3.782905233908455E+00
   3.830488324075985E+00   3.878669935837342E+00   3.927457597667384E+00
   3.976858932737541E+00   4.026881660106920E+00   4.077533595928444E+00
   4.128822654670140E+00   4.180756850351778E+00   4.233344297797104E+00
   4.286593213901767E+00   4.340511918917243E+00   4.395108837750890E+00
   4.450392501282351E+00   4.506371547696534E+00   4.563054723833329E+00
   4.620450886554330E+00   4.678569004126736E+00   4.737418157624655E+00
   4.797007542348060E+00   4.857346469259543E+00   4.918444366439196E+00
   4.980310780557758E+00   5.042955378368299E+00   5.106387948216687E+00
   5.170618401571012E+00   5.235656774570286E+00   5.301513229592613E+00
   5.368198056843072E+00   5.435721675961601E+00   5.504094637651061E+00
   5.573327625325822E+00   5.643431456781062E+00   5.714417085883071E+00
   5.786295604280825E+00   5.859078243139058E+00   5.932776374893169E+00
   6.007401515026184E+00   6.082965323868071E+00   6.159479608417705E+00
   6.236956324187714E+00   6.315407577072564E+00   6.394845625240127E+00
   6.475282881047043E+00   6.556731912978194E+00   6.639205447610522E+00
   6.722716371601608E+00   6.807277733703229E+00   6.892902746800250E+00
   6.979604789975183E+00   7.067397410598667E+00   7.156294326446289E+00
   7.246309427842012E+00   7.337456779828559E+00   7.429750624365133E+00
   7.523205382552709E+00   7.617835656887388E+00   7.713656233542065E+00
   7.810682084676781E+00   7.908928370778191E+00   8.008410443028374E+00
   8.109143845703517E+00   8.211144318602734E+00   8.314427799507429E+00
   8.419010426671639E+00   8.524908541343624E+00   8.632138690319255E+00
   8.740717628527474E+00   8.850662321648269E+00   8.961989948763643E+00
   9.074717905041819E+00   9.188863804455316E+00   9.304445482533149E+00
   9.421480999147660E+00   9.539988641336448E+00   9.659986926159704E+00
   9.781494603593565E+00   9.904530659459844E+00   1.002911431839258E+01
   1.015526504684197E+01   1.028300255611597E+01   1.041234680546030E+01
   1.054331800517706E+01   1.067593661978267E+01   1.081022337120549E+01
   1.094619924202363E+01   1.108388547874356E+01   1.122330359511988E+01
   1.136447537551691E+01   1.150742287831259E+01   1.165216843934503E+01
   1.179873467540264E+01   1.194714448775800E+01   1.209742106574621E+01
   1.224958789038835E+01   1.240366873806035E+01   1.255968768420812E+01
   1.271766910710944E+01   1.287763769168303E+01   1.303961843334571E+01
   1.320363664191792E+01   1.336971794557843E+01   1.353788829486884E+01
   1.370817396674836E+01   1.388060156869969E+01   1.405519804288643E+01
   1.423199067036290E+01   1.441100707533683E+01   1.459227522948568E+01
   1.477582345632737E+01   1.496168043564575E+01   1.514987520797198E+01