<UPF version="2.0.1">
  <PP_INFO>
    Generated using "atomic" code by A. Dal Corso  v.7.2
    Author: ADC
    Generation date: 31May2024
    Pseudopotential type: PAW
    Element: Eu
    Functional:  SLA  PW   BEEX BEEC
    Suggested minimum cutoff for wavefunctions: 124. Ry
    Suggested minimum cutoff for charge density: 496. Ry
    The Pseudo was generated with a Scalar-Relativistic Calculation
    Local Potential by smoothing AE potential with Bessel fncs, cutoff radius:   1.7000
    Valence configuration: 
    nl pn  l   occ       Rcut    Rcut US       E pseu
    5S  1  0  2.00      1.300      1.600    -3.437921
    6S  2  0  2.00      1.300      1.600    -0.297665
    5P  2  1  6.00      1.400      1.900    -1.876664
    4D  3  2 10.00      1.050      1.300   -10.214862
    5D  4  2  0.50      1.050      1.300    -0.171831
    4F  4  3  6.50      1.100      1.300    -0.436351
    Generation configuration:
    5S  1  0  2.00      1.300      1.600    -3.437936
    6S  2  0  2.00      1.300      1.600    -0.297670
    5P  2  1  6.00      1.400      1.900    -1.876676
    6P  3  1  0.00      1.400      1.900     0.300000
    4D  3  2 10.00      1.050      1.300   -10.214955
    5D  4  2  0.50      1.050      1.300    -0.171849
    4F  4  3  6.50      1.100      1.300    -0.436411
    4F  4  3  0.00      1.100      1.300     1.000000
    Pseudization used: troullier-martins
    <PP_INPUTFILE>
@input
title='Eu',
zed=63.0,
rel=1,
config='[Xe] 4f6.5 5d0.5 6s2. 6p0.',
iswitch=3,
dft='SLA-PW-BEEX-BEEC'
/
@inputp
lpaw=.true.,
pseudotype=3,
file_pseudopw='Eu.beef-spdfn-kjpaw_psl.1.0.0.UPF',
author='ADC',
lloc=-1,
rcloc=1.7,
which_augfun='PSQ',
rmatch_augfun_nc=.true.,
nlcc=.true.,
new_core_ps=.true.,
rcore=1.2,
tm=.true.
/
8
5S  1  0  2.00  0.00  1.30  1.60  0.0
6S  2  0  2.00  0.00  1.30  1.60  0.0
5P  2  1  6.00  0.00  1.40  1.90  0.0
6P  3  1  0.00  0.30  1.40  1.90  0.0
4D  3  2 10.00  0.00  1.05  1.30  0.0
5D  4  2  0.50  0.00  1.05  1.30  0.0
4F  4  3  6.50  0.00  1.10  1.30  0.0
4F  4  3  0.00  1.00  1.10  1.30  0.0
    </PP_INPUTFILE>
  </PP_INFO>
    <!-- END OF HUMAN READABLE SECTION -->
  <PP_HEADER generated="Generated using 'atomic' code by A. Dal Corso  v.7.2" author="ADC" date="31May2024" comment="" element="Eu" pseudo_type="PAW" relativistic="scalar" is_ultrasoft="true" is_paw="true" is_coulomb="false" has_so="false" has_wfc="true" has_gipaw="false" paw_as_gipaw="false" core_correction="true" functional=" SLA  PW   BEEX BEEC" z_valence="27.0000000000000" total_psenergy="-1134.59210392628" wfc_cutoff="124.065641887212" rho_cutoff="496.262567548850" l_max="3" l_max_rho="6" l_local="-1" mesh_size="1261" number_of_wfc="6" number_of_proj="8"/>
  <PP_MESH mesh="1261" dx="1.250000000000000E-002" xmin="-7.00000000000000" rmax="100.000000000000" zmesh="63.0000000000000">
    <PP_R>
   1.447431691356375E-05   1.465638140744480E-05   1.484073599073940E-05
   1.502740946922625E-05   1.521643101101619E-05   1.540783015110967E-05
   1.560163679601173E-05   1.579788122840494E-05   1.599659411188112E-05
   1.619780649573261E-05   1.640154981980376E-05   1.660785591940347E-05
   1.681675703027953E-05   1.702828579365551E-05   1.724247526133108E-05
   1.745935890084632E-05   1.767897060071116E-05   1.790134467570051E-05
   1.812651587221599E-05   1.835451937371520E-05   1.858539080620912E-05
   1.881916624382878E-05   1.905588221446192E-05   1.929557570546055E-05
   1.953828416942033E-05   1.978404553003253E-05   2.003289818800975E-05
   2.028488102708610E-05   2.054003342009282E-05   2.079839523511048E-05
   2.106000684169828E-05   2.132490911720201E-05   2.159314345314117E-05
   2.186475176167646E-05   2.213977648215871E-05   2.241826058776003E-05
   2.270024759218848E-05   2.298578155648723E-05   2.327490709591909E-05
   2.356766938693789E-05   2.386411417424718E-05   2.416428777794812E-05
   2.446823710077699E-05   2.477600963543385E-05   2.508765347200345E-05
   2.540321730546927E-05   2.572275044332233E-05   2.604630281326549E-05
   2.637392497101482E-05   2.670566810819907E-05   2.704158406035832E-05
   2.738172531504353E-05   2.772614502001777E-05   2.807489699156064E-05
   2.842803572287730E-05   2.878561639261294E-05   2.914769487347472E-05
   2.951432774096192E-05   2.988557228220599E-05   3.026148650492185E-05
   3.064212914647158E-05   3.102755968304234E-05   3.141783833893963E-05
   3.181302609599745E-05   3.221318470310689E-05   3.261837668586442E-05
   3.302866535634173E-05   3.344411482297832E-05   3.386479000059854E-05
   3.429075662055484E-05   3.472208124099818E-05   3.515883125727804E-05
   3.560107491247307E-05   3.604888130805408E-05   3.650232041468153E-05
   3.696146308313832E-05   3.742638105540052E-05   3.789714697584720E-05
   3.837383440261117E-05   3.885651781907274E-05   3.934527264549776E-05
   3.984017525082220E-05   4.034130296458505E-05   4.084873408901111E-05
   4.136254791124600E-05   4.188282471574479E-05   4.240964579681668E-05
   4.294309347132741E-05   4.348325109156141E-05   4.403020305824585E-05
   4.458403483373830E-05   4.514483295538044E-05   4.571268504901973E-05
   4.628767984270107E-05   4.686990718053090E-05   4.745945803671525E-05
   4.805642452977485E-05   4.866089993693878E-05   4.927297870871918E-05
   4.989275648366953E-05   5.052033010332805E-05   5.115579762734963E-05
   5.179925834882775E-05   5.245081280980924E-05   5.311056281700432E-05
   5.377861145769384E-05   5.445506311583705E-05   5.514002348838180E-05
   5.583359960177981E-05   5.653589982871000E-05   5.724703390501159E-05
   5.796711294683085E-05   5.869624946798305E-05   5.943455739753302E-05
   6.018215209759695E-05   6.093915038136768E-05   6.170567053136714E-05
   6.248183231792831E-05   6.326775701790937E-05   6.406356743364379E-05
   6.486938791212804E-05   6.568534436445138E-05   6.651156428546952E-05
   6.734817677372603E-05   6.819531255162444E-05   6.905310398585347E-05
   6.992168510806994E-05   7.080119163584130E-05   7.169176099385185E-05
   7.259353233537576E-05   7.350664656401977E-05   7.443124635573985E-05
   7.536747618113456E-05   7.631548232801889E-05   7.727541292428196E-05
   7.824741796103256E-05   7.923164931603519E-05   8.022826077744149E-05
   8.123740806781993E-05   8.225924886848769E-05   8.329394284414896E-05
   8.434165166784248E-05   8.540253904620350E-05   8.647677074504333E-05
   8.756451461525035E-05   8.866594061901745E-05   8.978122085639854E-05
   9.091052959219976E-05   9.205404328320868E-05   9.321194060576591E-05
   9.438440248368403E-05   9.557161211651681E-05   9.677375500818473E-05
   9.799101899596043E-05   9.922359427981844E-05   1.004716734521547E-04
   1.017354515278791E-04   1.030151259748871E-04   1.043108967449146E-04
   1.056229663047805E-04   1.069515396680233E-04   1.082968244269338E-04
   1.096590307849926E-04   1.110383715897146E-04   1.124350623659066E-04
   1.138493213493444E-04   1.152813695208713E-04   1.167314306409276E-04
   1.181997312845134E-04   1.196865008765916E-04   1.211919717279359E-04
   1.227163790714297E-04   1.242599610988218E-04   1.258229589979445E-04
   1.274056169903993E-04   1.290081823697176E-04   1.306309055400005E-04
   1.322740400550446E-04   1.339378426579609E-04   1.356225733212911E-04
   1.373284952876291E-04   1.390558751107528E-04   1.408049826972739E-04
   1.425760913488115E-04   1.443694778046955E-04   1.461854222852086E-04
   1.480242085353703E-04   1.498861238692732E-04   1.517714592149764E-04
   1.536805091599632E-04   1.556135719971719E-04   1.575709497716033E-04
   1.595529483275172E-04   1.615598773562203E-04   1.635920504444562E-04
   1.656497851234048E-04   1.677334029182961E-04   1.698432293986497E-04
   1.719795942291454E-04   1.741428312211346E-04   1.763332783847985E-04
   1.785512779819629E-04   1.807971765795774E-04   1.830713251038672E-04
   1.853740788951657E-04   1.877057977634384E-04   1.900668460445019E-04
   1.924575926569540E-04   1.948784111598166E-04   1.973296798109061E-04
   1.998117816259365E-04   2.023251044383662E-04   2.048700409599980E-04
   2.074469888423411E-04   2.100563507387449E-04   2.126985343673147E-04
   2.153739525746180E-04   2.180830234001927E-04   2.208261701418672E-04
   2.236038214219004E-04   2.264164112539564E-04   2.292643791109187E-04
   2.321481699935591E-04   2.350682345000701E-04   2.380250288964715E-04
   2.410190151879039E-04   2.440506611908164E-04   2.471204406060649E-04
   2.502288330929286E-04   2.533763243440573E-04   2.565634061613631E-04
   2.597905765328639E-04   2.630583397104961E-04   2.663672062889043E-04
   2.697176932852233E-04   2.731103242198632E-04   2.765456291983098E-04
   2.800241449939550E-04   2.835464151319691E-04   2.871129899742270E-04
   2.907244268053044E-04   2.943812899195537E-04   2.980841507092763E-04
   3.018335877540040E-04   3.056301869109037E-04   3.094745414063174E-04
   3.133672519284568E-04   3.173089267212608E-04   3.213001816794348E-04
   3.253416404446866E-04   3.294339345031705E-04   3.335777032841592E-04
   3.377735942599552E-04   3.420222630470599E-04   3.463243735086154E-04
   3.506805978581340E-04   3.550916167645334E-04   3.595581194584916E-04
   3.640808038401418E-04   3.686603765881203E-04   3.732975532699858E-04
   3.779930584540298E-04   3.827476258224901E-04   3.875619982861910E-04
   3.924369281006254E-04   3.973731769834944E-04   4.023715162337293E-04
   4.074327268520069E-04   4.125575996627833E-04   4.177469354378621E-04
   4.230015450215157E-04   4.283222494571823E-04   4.337098801157551E-04
   4.391652788254854E-04   4.446892980035210E-04   4.502828007890969E-04
   4.559466611784037E-04   4.616817641611504E-04   4.674890058588459E-04
   4.733692936648208E-04   4.793235463860080E-04   4.853526943865094E-04
   4.914576797329666E-04   4.976394563417601E-04   5.038989901280628E-04
   5.102372591567630E-04   5.166552537952926E-04   5.231539768683709E-04
   5.297344438146996E-04   5.363976828456279E-04   5.431447351058101E-04
   5.499766548358893E-04   5.568945095372228E-04   5.638993801386820E-04
   5.709923611655503E-04   5.781745609105434E-04   5.854471016069843E-04
   5.928111196041527E-04   6.002677655448426E-04   6.078182045451534E-04
   6.154636163765398E-04   6.232051956501558E-04   6.310441520035130E-04
   6.389817102894897E-04   6.470191107677179E-04   6.551576092983738E-04
   6.633984775384114E-04   6.717430031402590E-04   6.801924899530188E-04
   6.887482582261964E-04   6.974116448159909E-04   7.061840033941829E-04
   7.150667046596480E-04   7.240611365525303E-04   7.331687044711130E-04
   7.423908314914124E-04   7.517289585895386E-04   7.611845448668488E-04
   7.707590677779361E-04   7.804540233614855E-04   7.902709264740309E-04
   8.002113110266568E-04   8.102767302246732E-04   8.204687568103078E-04
   8.307889833084509E-04   8.412390222754893E-04   8.518205065512719E-04
   8.625350895142459E-04   8.733844453397973E-04   8.843702692618481E-04
   8.954942778377360E-04   9.067582092164333E-04   9.181638234101346E-04
   9.297129025692623E-04   9.414072512609325E-04   9.532486967509202E-04
   9.652390892891742E-04   9.773803023989244E-04   9.896742331694196E-04
   1.002122802552356E-03   1.014727955662025E-03   1.027491662079247E-03
   1.040415916159117E-03   1.053502737342629E-03   1.066754170472219E-03
   1.080172286111273E-03   1.093759180867660E-03   1.107516977721328E-03
   1.121447826356025E-03   1.135553903495195E-03   1.149837413242087E-03
   1.164300587424161E-03   1.178945685941808E-03   1.193774997121467E-03
   1.208790838073180E-03   1.223995555052647E-03   1.239391523827828E-03
   1.254981150050170E-03   1.270766869630485E-03   1.286751149119576E-03
   1.302936486093632E-03   1.319325409544485E-03   1.335920480274768E-03
   1.352724291298045E-03   1.369739468243977E-03   1.386968669768578E-03
   1.404414587969640E-03   1.422079948807376E-03   1.439967512530357E-03
   1.458080074106808E-03   1.476420463661326E-03   1.494991546917090E-03
   1.513796225643645E-03   1.532837438110299E-03   1.552118159545240E-03
   1.571641402600418E-03   1.591410217822282E-03   1.611427694128430E-03
   1.631696959290260E-03   1.652221180421693E-03   1.673003564474038E-03
   1.694047358737083E-03   1.715355851346497E-03   1.736932371797602E-03
   1.758780291465618E-03   1.780903024132441E-03   1.803304026520060E-03
   1.825986798830673E-03   1.848954885293603E-03   1.872211874719088E-03
   1.895761401059042E-03   1.919607143974868E-03   1.943752829412412E-03
   1.968202230184147E-03   1.992959166558687E-03   2.018027506857709E-03
   2.043411168060385E-03   2.069114116415424E-03   2.095140368060797E-03
   2.121493989651277E-03   2.148179098993853E-03   2.175199865691150E-03
   2.202560511792941E-03   2.230265312455844E-03   2.258318596611327E-03
   2.286724747642116E-03   2.315488204067102E-03   2.344613460234871E-03
   2.374105067025954E-03   2.403967632563914E-03   2.434205822935373E-03
   2.464824362919095E-03   2.495828036724248E-03   2.527221688737941E-03
   2.559010224282171E-03   2.591198610380293E-03   2.623791876533120E-03
   2.656795115504802E-03   2.690213484118574E-03   2.724052204062520E-03
   2.758316562705479E-03   2.793011913923199E-03   2.828143678934897E-03
   2.863717347150331E-03   2.899738477027535E-03   2.936212696941339E-03
   2.973145706062811E-03   3.010543275249767E-03   3.048411247948479E-03
   3.086755541106723E-03   3.125582146098319E-03   3.164897129659289E-03
   3.204706634835801E-03   3.245016881944033E-03   3.285834169542106E-03
   3.327164875414252E-03   3.369015457567352E-03   3.411392455240010E-03
   3.454302489924333E-03   3.497752266400538E-03   3.541748573784601E-03
   3.586298286589063E-03   3.631408365797183E-03   3.677085859950617E-03
   3.723337906250757E-03   3.770171731673939E-03   3.817594654100670E-03
   3.865614083459060E-03   3.914237522882644E-03   3.963472569882756E-03
   4.013326917535659E-03   4.063808355684605E-03   4.114924772157010E-03
   4.166684153996942E-03   4.219094588713121E-03   4.272164265542602E-03
   4.325901476730360E-03   4.380314618824972E-03   4.435412193990593E-03
   4.491202811335444E-03   4.547695188256986E-03   4.604898151804054E-03
   4.662820640056078E-03   4.721471703519694E-03   4.780860506542892E-03
   4.840996328746973E-03   4.901888566476507E-03   4.963546734267522E-03
   5.025980466334180E-03   5.089199518074138E-03   5.153213767592854E-03
   5.218033217247051E-03   5.283667995207614E-03   5.350128357042134E-03
   5.417424687317362E-03   5.485567501221819E-03   5.554567446208817E-03
   5.624435303660140E-03   5.695181990570663E-03   5.766818561254149E-03
   5.839356209070515E-03   5.912806268174811E-03   5.987180215288207E-03
   6.062489671491255E-03   6.138746404039704E-03   6.215962328203160E-03
   6.294149509126873E-03   6.373320163716933E-03   6.453486662549194E-03
   6.534661531802200E-03   6.616857455214421E-03   6.700087276066121E-03
   6.784363999186140E-03   6.869700792983927E-03   6.956110991507133E-03
   7.043608096525080E-03   7.132205779638441E-03   7.221917884415455E-03
   7.312758428555015E-03   7.404741606076961E-03   7.497881789539918E-03
   7.592193532287052E-03   7.687691570720042E-03   7.784390826601688E-03
   7.882306409387455E-03   7.981453618586367E-03   8.081847946151579E-03
   8.183505078901020E-03   8.286440900968511E-03   8.390671496285675E-03
   8.496213151095085E-03   8.603082356495036E-03   8.711295811016295E-03
   8.820870423231295E-03   8.931823314396126E-03   9.044171821125765E-03
   9.157933498102967E-03   9.273126120821207E-03   9.389767688362147E-03
   9.507876426208026E-03   9.627470789089423E-03   9.748569463868857E-03
   9.871191372460640E-03   9.995355674787465E-03   1.012108177177418E-02
   1.024838930837924E-02   1.037729817666425E-02   1.050782851890213E-02
   1.064000073072444E-02   1.077383546430817E-02   1.090935363160274E-02
   1.104657640759750E-02   1.118552523363038E-02   1.132622182073814E-02
   1.146868815304877E-02   1.161294649121654E-02   1.175901937590029E-02
   1.190692963128543E-02   1.205670036865030E-02   1.220835498997731E-02
   1.236191719160961E-02   1.251741096795360E-02   1.267486061522821E-02
   1.283429073526115E-02   1.299572623933305E-02   1.315919235206985E-02
   1.332471461538425E-02   1.349231889246664E-02   1.366203137182632E-02
   1.383387857138346E-02   1.400788734261263E-02   1.418408487473835E-02
   1.436249869898349E-02   1.454315669287108E-02   1.472608708458021E-02
   1.491131845735676E-02   1.509887975397959E-02   1.528880028128289E-02
   1.548110971473545E-02   1.567583810307749E-02   1.587301587301588E-02
   1.607267383397833E-02   1.627484318292745E-02   1.647955550923533E-02
   1.668684279961944E-02   1.689673744314063E-02   1.710927223626400E-02
   1.732448038798337E-02   1.754239552501029E-02   1.776305169702827E-02
   1.798648338201312E-02   1.821272549162020E-02   1.844181337663942E-02
   1.867378283251890E-02   1.890867010495807E-02   1.914651189557113E-02
   1.938734536762175E-02   1.963120815182992E-02   1.987813835225182E-02
   2.012817455223365E-02   2.038135582044035E-02   2.063772171696018E-02
   2.089731229948607E-02   2.116016812957465E-02   2.142633027898418E-02
   2.169584033609202E-02   2.196874041239289E-02   2.224507314907895E-02
   2.252488172370250E-02   2.280820985692262E-02   2.309510181933654E-02
   2.338560243839708E-02   2.367975710541700E-02   2.397761178266148E-02
   2.427921301052983E-02   2.458460791482752E-02   2.489384421412967E-02
   2.520697022723721E-02   2.552403488072672E-02   2.584508771659541E-02
   2.617017890000204E-02   2.649935922710545E-02   2.683268013300146E-02
   2.717019369975976E-02   2.751195266456184E-02   2.785801042794126E-02
   2.820842106212761E-02   2.856323931949539E-02   2.892252064111920E-02
   2.928632116543652E-02   2.965469773701941E-02   3.002770791545667E-02
   3.040540998434757E-02   3.078786296040881E-02   3.117512660269600E-02
   3.156726142194115E-02   3.196432869000758E-02   3.236639044946375E-02
   3.277350952327757E-02   3.318574952463264E-02   3.360317486686787E-02
   3.402585077354222E-02   3.445384328862609E-02   3.488721928682068E-02
   3.532604648400744E-02   3.577039344782872E-02   3.622032960840166E-02
   3.667592526916675E-02   3.713725161787289E-02   3.760438073770065E-02
   3.807738561852538E-02   3.855634016832205E-02   3.904131922471350E-02
   3.953239856666400E-02   4.002965492631983E-02   4.053316600099886E-02
   4.104301046533091E-02   4.155926798355083E-02   4.208201922194615E-02
   4.261134586146145E-02   4.314733061046105E-02   4.369005721765247E-02
   4.423961048517225E-02   4.479607628183654E-02   4.535954155655818E-02
   4.593009435193273E-02   4.650782381799528E-02   4.709282022615029E-02
   4.768517498327674E-02   4.828498064601056E-02   4.889233093520687E-02
   4.950732075058403E-02   5.013004618555189E-02   5.076060454222662E-02
   5.139909434663432E-02   5.204561536410596E-02   5.270026861486585E-02
   5.336315638981635E-02   5.403438226652096E-02   5.471405112538851E-02
   5.540226916606100E-02   5.609914392400748E-02   5.680478428732667E-02
   5.751930051376102E-02   5.824280424792454E-02   5.897540853874771E-02
   5.971722785714146E-02   6.046837811388353E-02   6.122897667772978E-02
   6.199914239375324E-02   6.277899560191395E-02   6.356865815586232E-02
   6.436825344197900E-02   6.517790639865420E-02   6.599774353580969E-02
   6.682789295466607E-02   6.766848436775903E-02   6.851964911920709E-02
   6.938152020523429E-02   7.025423229495137E-02   7.113792175139790E-02
   7.203272665284928E-02   7.293878681439192E-02   7.385624380976942E-02
   7.478524099350387E-02   7.572592352329532E-02   7.667843838270287E-02
   7.764293440411123E-02   7.861956229198599E-02   7.960847464642161E-02
   8.060982598698545E-02   8.162377277686171E-02   8.265047344729923E-02
   8.369008842236657E-02   8.474278014401872E-02   8.580871309747888E-02
   8.688805383693970E-02   8.798097101158771E-02   8.908763539195493E-02
   9.020821989660231E-02   9.134289961913862E-02   9.249185185557898E-02
   9.365525613204793E-02   9.483329423283059E-02   9.602615022877697E-02
   9.723401050606331E-02   9.845706379531537E-02   9.969550120109789E-02
   1.009495162317752E-01   1.022193048297470E-01   1.035050654020653E-01
   1.048069988514354E-01   1.061253086076075E-01   1.074602006591632E-01
   1.088118835857013E-01   1.101805685904292E-01   1.115664695331634E-01
   1.129698029637460E-01   1.143907881558805E-01   1.158296471413942E-01
   1.172866047449310E-01   1.187618886190807E-01   1.202557292799500E-01
   1.217683601431815E-01   1.233000175604250E-01   1.248509408562682E-01
   1.264213723656314E-01   1.280115574716329E-01   1.296217446439310E-01
   1.312521854775472E-01   1.329031347321789E-01   1.345748503720060E-01
   1.362675936059984E-01   1.379816289287303E-01   1.397172241617081E-01
   1.414746504952181E-01   1.432541825307004E-01   1.450560983236560E-01
   1.468806794270936E-01   1.487282109355228E-01   1.505989815295005E-01
   1.524932835207382E-01   1.544114128977760E-01   1.563536693722316E-01
   1.583203564256306E-01   1.603117813568263E-01   1.623282553300159E-01
   1.643700934233602E-01   1.664376146782156E-01   1.685311421489843E-01
   1.706510029535930E-01   1.727975283246055E-01   1.749710536609778E-01
   1.771719185804662E-01   1.794004669726919E-01   1.816570470528750E-01
   1.839420114162444E-01   1.862557170931304E-01   1.885985256047525E-01
   1.909708030197070E-01   1.933729200111663E-01   1.958052519147978E-01
   1.982681787874097E-01   2.007620854663370E-01   2.032873616295721E-01
   2.058444018566530E-01   2.084336056903179E-01   2.110553776989331E-01
   2.137101275397095E-01   2.163982700227105E-01   2.191202251756683E-01
   2.218764183096133E-01   2.246672800853303E-01   2.274932465806498E-01
   2.303547593585861E-01   2.332522655363325E-01   2.361862178551245E-01
   2.391570747509808E-01   2.421653004263360E-01   2.452113649225718E-01
   2.482957441934631E-01   2.514189201795464E-01   2.545813808834234E-01
   2.577836204460134E-01   2.610261392237629E-01   2.643094438668278E-01
   2.676340473982388E-01   2.710004692940613E-01   2.744092355645659E-01
   2.778608788364173E-01   2.813559384358992E-01   2.848949604731849E-01
   2.884784979276677E-01   2.921071107343660E-01   2.957813658714130E-01
   2.995018374486491E-01   3.032691067973279E-01   3.070837625609495E-01
   3.109464007872381E-01   3.148576250212751E-01   3.188180463998044E-01
   3.228282837467241E-01   3.268889636697783E-01   3.310007206584669E-01
   3.351641971831846E-01   3.393800437956088E-01   3.436489192303503E-01
   3.479714905078805E-01   3.523484330387563E-01   3.567804307291528E-01
   3.612681760877260E-01   3.658123703338189E-01   3.704137235070273E-01
   3.750729545781465E-01   3.797907915615104E-01   3.845679716287458E-01
   3.894052412239581E-01   3.943033561803627E-01   3.992630818383869E-01
   4.042851931652555E-01   4.093704748760805E-01   4.145197215564759E-01
   4.197337377867111E-01   4.250133382674307E-01   4.303593479469509E-01
   4.357726021501605E-01   4.412539467090426E-01   4.468042380948358E-01
   4.524243435518618E-01   4.581151412330323E-01   4.638775203370628E-01
   4.697123812474122E-01   4.756206356729686E-01   4.816032067905069E-01
   4.876610293889355E-01   4.937950500153599E-01   5.000062271229834E-01
   5.062955312208653E-01   5.126639450255666E-01   5.191124636147012E-01
   5.256420945824178E-01   5.322538581968405E-01   5.389487875594852E-01
   5.457279287666857E-01   5.525923410730484E-01   5.595430970569613E-01
   5.665812827881889E-01   5.737079979975707E-01   5.809243562488573E-01
   5.882314851127078E-01   5.956305263428733E-01   6.031226360545997E-01
   6.107089849052723E-01   6.183907582773331E-01   6.261691564635009E-01
   6.340453948543168E-01   6.420207041280542E-01   6.500963304430131E-01
   6.582735356322345E-01   6.665535974006668E-01   6.749378095248064E-01
   6.834274820548562E-01   6.920239415194211E-01   7.007285311327818E-01
   7.095426110047756E-01   7.184675583533140E-01   7.275047677195793E-01
   7.366556511859206E-01   7.459216385964970E-01   7.553041777806937E-01
   7.648047347793466E-01   7.744247940738165E-01   7.841658588179400E-01
   7.940294510729011E-01   8.040171120450582E-01   8.141304023267576E-01
   8.243709021401820E-01   8.347402115842615E-01   8.452399508846927E-01
   8.558717606471042E-01   8.666373021134014E-01   8.775382574213403E-01
   8.885763298673676E-01   8.997532441727590E-01   9.110707467531148E-01
   9.225306059912387E-01   9.341346125134510E-01   9.458845794693808E-01
   9.577823428152699E-01   9.698297616008472E-01   9.820287182598085E-01
   9.943811189039502E-01   1.006888893621005E+00   1.019553996776221E+00
   1.032378407317730E+00   1.045364129085774E+00   1.058513191125797E+00
   1.071827648005494E+00   1.085309580135844E+00   1.098961094096169E+00
   1.112784322963301E+00   1.126781426644872E+00   1.140954592216811E+00
   1.155306034265074E+00   1.169837995231680E+00   1.184552745765095E+00
   1.199452585075027E+00   1.214539841291681E+00   1.229816871829538E+00
   1.245286063755701E+00   1.260949834162880E+00   1.276810630547069E+00
   1.292870931189970E+00   1.309133245546239E+00   1.325600114635576E+00
   1.342274111439779E+00   1.359157841304772E+00   1.376253942347697E+00
   1.393565085869125E+00   1.411093976770450E+00   1.428843353976538E+00
   1.446815990863690E+00   1.465014695692982E+00   1.483442312049074E+00
   1.502101719284510E+00   1.520995832969634E+00   1.540127605348150E+00
   1.559500025798414E+00   1.579116121300538E+00   1.598978956909351E+00
   1.619091636233330E+00   1.639457301919537E+00   1.660079136144670E+00
   1.680960361112285E+00   1.702104239556263E+00   1.723514075250630E+00
   1.745193213525772E+00   1.767145041791149E+00   1.789372990064591E+00
   1.811880531508239E+00   1.834671182971234E+00   1.857748505539237E+00
   1.881116105090846E+00   1.904777632861039E+00   1.928736786011666E+00
   1.952997308209153E+00   1.977562990209452E+00   2.002437670450352E+00
   2.027625235651253E+00   2.053129621420460E+00   2.078954812870138E+00
   2.105104845238995E+00   2.131583804522786E+00   2.158395828112778E+00
   2.185545105442202E+00   2.213035878640878E+00   2.240872443198048E+00
   2.269059148633556E+00   2.297600399177476E+00   2.326500654458273E+00
   2.355764430199631E+00   2.385396298926048E+00   2.415400890677295E+00
   2.445782893731885E+00   2.476547055339605E+00   2.507698182463295E+00
   2.539241142529947E+00   2.571180864191243E+00   2.603522338093680E+00
   2.636270617658351E+00   2.669430819870565E+00   2.703008126079383E+00
   2.737007782807212E+00   2.771435102569592E+00   2.806295464705277E+00
   2.841594316216775E+00   2.877337172621450E+00   2.913529618813333E+00
   2.950177309935780E+00   2.987285972265087E+00   3.024861404105241E+00
   3.062909476693914E+00   3.101436135119856E+00   3.140447399251834E+00
   3.179949364679235E+00   3.219948203664525E+00   3.260450166107672E+00
   3.301461580522708E+00   3.342988855026580E+00   3.385038478340414E+00
   3.427617020803402E+00   3.470731135399431E+00   3.514387558796622E+00
   3.558593112399954E+00   3.603354703417113E+00   3.648679325937763E+00
   3.694574062026386E+00   3.741046082828867E+00   3.788102649693010E+00
   3.835751115303123E+00   3.883998924828898E+00   3.932853617088735E+00
   3.982322825727692E+00   4.032414280410270E+00   4.083135808028174E+00
   4.134495333923286E+00   4.186500883126020E+00   4.239160581609240E+00
   4.292482657557980E+00   4.346475442655088E+00   4.401147373383083E+00
   4.456506992342374E+00   4.512562949586046E+00   4.569324003971477E+00
   4.626799024528892E+00   4.684996991847183E+00   4.743926999477152E+00
   4.803598255352378E+00   4.864020083228005E+00   4.925201924137562E+00
   4.987153337868167E+00   5.049884004454255E+00   5.113403725690103E+00
   5.177722426661397E+00   5.242850157296014E+00   5.308797093934370E+00
   5.375573540919485E+00   5.443189932207054E+00   5.511656832995790E+00
   5.580984941378235E+00   5.651185090012372E+00   5.722268247814250E+00
   5.794245521671887E+00   5.867128158180776E+00   5.940927545401146E+00
   6.015655214637395E+00   6.091322842239877E+00   6.167942251429346E+00
   6.245525414144383E+00   6.324084452911999E+00   6.403631642741834E+00
   6.484179413044136E+00   6.565740349571886E+00   6.648327196387364E+00
   6.731952857853406E+00   6.816630400649751E+00   6.902373055814740E+00
   6.989194220812681E+00   7.077107461627256E+00   7.166126514881198E+00
   7.256265289982688E+00   7.347537871298723E+00   7.439958520355826E+00
   7.533541678068452E+00   7.628301966995386E+00   7.724254193624565E+00
   7.821413350686615E+00   7.919794619497493E+00   8.019413372330620E+00
   8.120285174818797E+00   8.222425788386388E+00   8.325851172712071E+00
   8.430577488222557E+00   8.536621098617729E+00   8.643998573427451E+00
   8.752726690600623E+00   8.862822439126761E+00   8.974303021690558E+00
   9.087185857359863E+00   9.201488584307404E+00   9.317229062566817E+00
   9.434425376823306E+00   9.553095839239401E+00   9.673258992316311E+00
   9.794933611791169E+00   9.918138709570817E+00   1.004289353670245E+01
   1.016921758638160E+01   1.029713059699807E+01   1.042665255522000E+01
   1.055780369911686E+01   1.069060452132174E+01   1.082507577223326E+01
   1.096123846325800E+01   1.109911387009343E+01   1.123872353605238E+01
   1.138008927542920E+01   1.152323317690828E+01   1.166817760701545E+01
   1.181494521361281E+01   1.196355892943749E+01   1.211404197568495E+01
   1.226641786563730E+01   1.242071040833739E+01   1.257694371230892E+01
   1.273514218932349E+01   1.289533055821498E+01   1.305753384874194E+01
   1.322177740549854E+01   1.338808689187466E+01   1.355648829406591E+01
   1.372700792513400E+01   1.389967242911819E+01   1.407450878519855E+01
   1.425154431191140E+01   1.443080667141798E+01   1.461232387382668E+01
   1.479612428156966E+01   1.498223661383459E+01   1.517068995105203E+01
   1.536151373943933E+01   1.555473779560166E+01   1.575039231119089E+01
   1.594850785762319E+01   1.614911539085573E+01   1.635224625622373E+01