<UPF version="2.0.1">
  <PP_INFO>
    Generated using "atomic" code by A. Dal Corso  v.7.2
    Author: ADC
    Generation date: 31May2024
    Pseudopotential type: PAW
    Element: Ga
    Functional:  SLA  PW   BEEX BEEC
    Suggested minimum cutoff for wavefunctions:  45. Ry
    Suggested minimum cutoff for charge density: 240. Ry
    The Pseudo was generated with a Scalar-Relativistic Calculation
    Local Potential by smoothing AE potential with Bessel fncs, cutoff radius:   1.9000
    Valence configuration: 
    nl pn  l   occ       Rcut    Rcut US       E pseu
    4S  1  0  2.00      1.300      2.200    -0.681575
    4P  2  1  1.00      1.300      2.200    -0.209777
    3D  3  2 10.00      1.300      1.700    -1.453541
    Generation configuration:
    4S  1  0  2.00      1.300      2.200    -0.681573
    4S  1  0  0.00      1.300      2.200     6.100000
    4P  2  1  1.00      1.300      2.200    -0.209776
    4P  2  1  0.00      1.300      2.200     6.300000
    3D  3  2 10.00      1.300      1.700    -1.453538
    3D  3  2  0.00      1.300      1.700    -1.300000
    Pseudization used: troullier-martins
    <PP_INPUTFILE>
@input
title='Ga',
zed=31.,
rel=1,
config='[Ar] 4s2 4p1 3d10',
iswitch=3,
dft='SLA-PW-BEEX-BEEC'
/
@inputp
lpaw=.true.,
pseudotype=3,
file_pseudopw='Ga.beef-dnl-kjpaw_psl.1.0.0.UPF',
author='ADC',
lloc=-1,
rcloc=1.9,
which_augfun='PSQ',
rmatch_augfun_nc=.true.,
nlcc=.true.,
new_core_ps=.true.,
rcore=1.1,
tm=.true.
/
6
4S  1  0  2.00  0.00  1.30  2.20  0.0
4S  1  0  0.00  6.10  1.30  2.20  0.0
4P  2  1  1.00  0.00  1.30  2.20  0.0
4P  2  1  0.00  6.30  1.30  2.20  0.0
3D  3  2 10.00  0.00  1.30  1.70  0.0
3D  3  2  0.00 -1.30  1.30  1.70  0.0
    </PP_INPUTFILE>
  </PP_INFO>
    <!-- END OF HUMAN READABLE SECTION -->
  <PP_HEADER generated="Generated using 'atomic' code by A. Dal Corso  v.7.2" author="ADC" date="31May2024" comment="" element="Ga" pseudo_type="PAW" relativistic="scalar" is_ultrasoft="true" is_paw="true" is_coulomb="false" has_so="false" has_wfc="true" has_gipaw="false" paw_as_gipaw="false" core_correction="true" functional=" SLA  PW   BEEX BEEC" z_valence="13.0000000000000" total_psenergy="-283.603338453137" wfc_cutoff="45.0640814235469" rho_cutoff="239.904699438145" l_max="2" l_max_rho="4" l_local="-1" mesh_size="1205" number_of_wfc="3" number_of_proj="6"/>
  <PP_MESH mesh="1205" dx="1.250000000000000E-002" xmin="-7.00000000000000" rmax="100.000000000000" zmesh="31.0000000000000">
    <PP_R>
   2.941554727595214E-05   2.978554931190394E-05   3.016020540053491E-05
   3.053957408262109E-05   3.092371463529096E-05   3.131268708128738E-05
   3.170655219834641E-05   3.210537152869391E-05   3.250920738866163E-05
   3.291812287842434E-05   3.333218189185926E-05   3.375144912652963E-05
   3.417599009379387E-05   3.460587112904183E-05   3.504115940205993E-05
   3.548192292752640E-05   3.592823057563882E-05   3.638015208287524E-05
   3.683775806289056E-05   3.730112001755025E-05   3.777031034810240E-05
   3.824540236649074E-05   3.872647030680971E-05   3.921358933690370E-05
   3.970683557011229E-05   4.020628607716289E-05   4.071201889821337E-05
   4.122411305504595E-05   4.174264856341445E-05   4.226770644554710E-05
   4.279936874280617E-05   4.333771852850732E-05   4.388283992089980E-05
   4.443481809631023E-05   4.499373930245157E-05   4.555969087189940E-05
   4.613276123573788E-05   4.671303993737728E-05   4.730061764654526E-05
   4.789558617345442E-05   4.849803848314750E-05   4.910806871002360E-05
   4.972577217254679E-05   5.035124538813975E-05   5.098458608826507E-05
   5.162589323369562E-05   5.227526702997763E-05   5.293280894308794E-05
   5.359862171528819E-05   5.427280938117875E-05   5.495547728395400E-05
   5.564673209186266E-05   5.634668181487483E-05   5.705543582155873E-05
   5.777310485617000E-05   5.849980105595533E-05   5.923563796867442E-05
   5.998073057034197E-05   6.073519528319282E-05   6.149914999387343E-05
   6.227271407186159E-05   6.305600838811830E-05   6.384915533397408E-05
   6.465227884025288E-05   6.546550439663658E-05   6.628895907127287E-05
   6.712277153062998E-05   6.796707205960111E-05   6.882199258186155E-05
   6.968766668048240E-05   7.056422961880274E-05   7.145181836156505E-05
   7.235057159631624E-05   7.326062975507765E-05   7.418213503628827E-05
   7.511523142702303E-05   7.606006472549138E-05   7.701678256381850E-05
   7.798553443111302E-05   7.896647169682527E-05   7.995974763439866E-05
   8.096551744521930E-05   8.198393828286639E-05   8.301516927766775E-05
   8.405937156156446E-05   8.511670829328779E-05   8.618734468385324E-05
   8.727144802237506E-05   8.836918770220543E-05   8.948073524740285E-05
   9.060626433953266E-05   9.174595084480541E-05   9.289997284155622E-05
   9.406851064806993E-05   9.525174685075634E-05   9.644986633267937E-05
   9.766305630244566E-05   9.889150632345622E-05   1.001354083435261E-04
   1.013949567248768E-04   1.026703482745054E-04   1.039617822749363E-04
   1.052694605153596E-04   1.065935873231607E-04   1.079343695958475E-04
   1.092920168333778E-04   1.106667411708947E-04   1.120587574118727E-04
   1.134682830616816E-04   1.148955383615719E-04   1.163407463230881E-04
   1.178041327629143E-04   1.192859263381591E-04   1.207863585820832E-04
   1.223056639402777E-04   1.238440798072956E-04   1.254018465637461E-04
   1.269792076138543E-04   1.285764094234932E-04   1.301937015586954E-04
   1.318313367246473E-04   1.334895708051754E-04   1.351686629027284E-04
   1.368688753788626E-04   1.385904738952368E-04   1.403337274551216E-04
   1.420989084454325E-04   1.438862926792904E-04   1.456961594391183E-04
   1.475287915202798E-04   1.493844752752660E-04   1.512635006584391E-04
   1.531661612713380E-04   1.550927544085545E-04   1.570435811041859E-04
   1.590189461788726E-04   1.610191582874264E-04   1.630445299670585E-04
   1.650953776862147E-04   1.671720218940234E-04   1.692747870703672E-04
   1.714040017765831E-04   1.735599987068007E-04   1.757431147399267E-04
   1.779536909922830E-04   1.801920728709064E-04   1.824586101275196E-04
   1.847536569131802E-04   1.870775718336176E-04   1.894307180052662E-04
   1.918134631120030E-04   1.942261794625987E-04   1.966692440488915E-04
   1.991430386046938E-04   2.016479496654375E-04   2.041843686285725E-04
   2.067526918147220E-04   2.093533205296093E-04   2.119866611267619E-04
   2.146531250710056E-04   2.173531290027570E-04   2.200870948031235E-04
   2.228554496598236E-04   2.256586261339360E-04   2.284970622274877E-04
   2.313712014518935E-04   2.342814928972546E-04   2.372283913025302E-04
   2.402123571265917E-04   2.432338566201700E-04   2.462933618987085E-04
   2.493913510161313E-04   2.525283080395411E-04   2.557047231248549E-04
   2.589210925933921E-04   2.621779190094262E-04   2.654757112587107E-04
   2.688149846279939E-04   2.721962608855335E-04   2.756200683626239E-04
   2.790869420361495E-04   2.825974236121751E-04   2.861520616105890E-04
   2.897514114508105E-04   2.933960355385747E-04   2.970865033538110E-04
   3.008233915396235E-04   3.046072839923939E-04   3.084387719530166E-04
   3.123184540992801E-04   3.162469366394138E-04   3.202248334068068E-04
   3.242527659559221E-04   3.283313636594154E-04   3.324612638064755E-04
   3.366431117024034E-04   3.408775607694405E-04   3.451652726488686E-04
   3.495069173043923E-04   3.539031731268218E-04   3.583547270400744E-04
   3.628622746085053E-04   3.674265201455928E-04   3.720481768239881E-04
   3.767279667869497E-04   3.814666212611812E-04   3.862648806710846E-04
   3.911234947544548E-04   3.960432226796273E-04   4.010248331640994E-04
   4.060691045946451E-04   4.111768251489377E-04   4.163487929187056E-04
   4.215858160344352E-04   4.268887127916429E-04   4.322583117787364E-04
   4.376954520064817E-04   4.432009830391014E-04   4.487757651270204E-04
   4.544206693412814E-04   4.601365777096534E-04   4.659243833544477E-04
   4.717849906320717E-04   4.777193152743359E-04   4.837282845315388E-04
   4.898128373173531E-04   4.959739243555301E-04   5.022125083284546E-04
   5.085295640275645E-04   5.149260785056648E-04   5.214030512311573E-04
   5.279614942442074E-04   5.346024323148792E-04   5.413269031032572E-04
   5.481359573215827E-04   5.550306588984317E-04   5.620120851449520E-04
   5.690813269231988E-04   5.762394888165824E-04   5.834876893024613E-04
   5.908270609269090E-04   5.982587504816737E-04   6.057839191833680E-04
   6.134037428549115E-04   6.211194121092558E-04   6.289321325354192E-04
   6.368431248868639E-04   6.448536252722397E-04   6.529648853485288E-04
   6.611781725166212E-04   6.694947701193465E-04   6.779159776420010E-04
   6.864431109153928E-04   6.950775023214442E-04   7.038205010013798E-04
   7.126734730665304E-04   7.216378018117936E-04   7.307148879317733E-04
   7.399061497396429E-04   7.492130233887605E-04   7.586369630970679E-04
   7.681794413743187E-04   7.778419492521573E-04   7.876259965170979E-04
   7.975331119464322E-04   8.075648435471015E-04   8.177227587975789E-04
   8.280084448927882E-04   8.384235089921079E-04   8.489695784704940E-04
   8.596483011727576E-04   8.704613456710479E-04   8.814104015255667E-04
   8.924971795485670E-04   9.037234120716716E-04   9.150908532165517E-04
   9.266012791690140E-04   9.382564884565315E-04   9.500583022292674E-04
   9.620085645446358E-04   9.741091426554356E-04   9.863619273016160E-04
   9.987688330057062E-04   1.011331798371964E-03   1.024052786389289E-03
   1.036933784737938E-03   1.049976806100111E-03   1.063183888474431E-03
   1.076557095494390E-03   1.090098516750792E-03   1.103810268118259E-03
   1.117694492085840E-03   1.131753358091776E-03   1.145989062862483E-03
   1.160403830755796E-03   1.174999914108524E-03   1.189779593588388E-03
   1.204745178550375E-03   1.219899007397583E-03   1.235243447946602E-03
   1.250780897797484E-03   1.266513784708381E-03   1.282444566974881E-03
   1.298575733814124E-03   1.314909805753749E-03   1.331449335025727E-03
   1.348196905965159E-03   1.365155135414075E-03   1.382326673130329E-03
   1.399714202201625E-03   1.417320439464756E-03   1.435148135930114E-03
   1.453200077211543E-03   1.471479083961594E-03   1.489988012312262E-03
   1.508729754321257E-03   1.527707238423901E-03   1.546923429890693E-03
   1.566381331290644E-03   1.586083982960438E-03   1.606034463479482E-03
   1.626235890150948E-03   1.646691419488852E-03   1.667404247711271E-03
   1.688377611239755E-03   1.709614787205027E-03   1.731119093959037E-03
   1.752893891593467E-03   1.774942582464749E-03   1.797268611725691E-03
   1.819875467863786E-03   1.842766683246300E-03   1.865945834672209E-03
   1.889416543931081E-03   1.913182478368992E-03   1.937247351461548E-03
   1.961614923394128E-03   1.986289001649427E-03   2.011273441602369E-03
   2.036572147122529E-03   2.062189071184116E-03   2.088128216483631E-03
   2.114393636065302E-03   2.140989433954374E-03   2.167919765798380E-03
   2.195188839516459E-03   2.222800915956858E-03   2.250760309562699E-03
   2.279071389046116E-03   2.307738578070879E-03   2.336766355943597E-03
   2.366159258313617E-03   2.395921877881739E-03   2.426058865117819E-03
   2.456574928987431E-03   2.487474837687637E-03   2.518763419392038E-03
   2.550445563005183E-03   2.582526218926469E-03   2.615010399823654E-03
   2.647903181416091E-03   2.681209703267825E-03   2.714935169590658E-03
   2.749084850057317E-03   2.783664080624856E-03   2.818678264368401E-03
   2.854132872325397E-03   2.890033444350475E-03   2.926385589981049E-03
   2.963194989313837E-03   3.000467393892372E-03   3.038208627605700E-03
   3.076424587598376E-03   3.115121245191897E-03   3.154304646817745E-03
   3.193980914962140E-03   3.234156249122701E-03   3.274836926777132E-03
   3.316029304364077E-03   3.357739818276345E-03   3.399974985866593E-03
   3.442741406465684E-03   3.486045762413849E-03   3.529894820104804E-03
   3.574295431043029E-03   3.619254532914316E-03   3.664779150669799E-03
   3.710876397623627E-03   3.757553476564418E-03   3.804817680880727E-03
   3.852676395700635E-03   3.901137099045700E-03   3.950207362999418E-03
   3.999894854890362E-03   4.050207338490234E-03   4.101152675226956E-03
   4.152738825413040E-03   4.204973849489409E-03   4.257865909284846E-03
   4.311423269291305E-03   4.365654297955249E-03   4.420567468985242E-03
   4.476171362675977E-03   4.532474667248972E-03   4.589486180210117E-03
   4.647214809724300E-03   4.705669576007336E-03   4.764859612735382E-03
   4.824794168472099E-03   4.885482608113761E-03   4.946934414352532E-03
   5.009159189158162E-03   5.072166655278312E-03   5.135966657757752E-03
   5.200569165476671E-03   5.265984272708336E-03   5.332222200696341E-03
   5.399293299251696E-03   5.467208048370004E-03   5.535977059868993E-03
   5.605611079046618E-03   5.676120986360051E-03   5.747517799125757E-03
   5.819812673240995E-03   5.893016904926925E-03   5.967141932493688E-03
   6.042199338127648E-03   6.118200849701139E-03   6.195158342604973E-03
   6.273083841603987E-03   6.351989522715938E-03   6.431887715114040E-03
   6.512790903053402E-03   6.594711727821744E-03   6.677662989714602E-03
   6.761657650035415E-03   6.846708833120747E-03   6.932829828390989E-03
   7.020034092426870E-03   7.108335251072062E-03   7.197747101562254E-03
   7.288283614680998E-03   7.379958936942661E-03   7.472787392802866E-03
   7.566783486896701E-03   7.661961906305103E-03   7.758337522849749E-03
   7.855925395416800E-03   7.954740772309888E-03   8.054799093632697E-03
   8.156115993701500E-03   8.258707303488069E-03   8.362589053093278E-03
   8.467777474251851E-03   8.574289002868602E-03   8.682140281586578E-03
   8.791348162387507E-03   8.901929709224942E-03   9.013902200690560E-03
   9.127283132713966E-03   9.242090221296457E-03   9.358341405279207E-03
   9.476054849146223E-03   9.595248945862602E-03   9.715942319748459E-03
   9.838153829389011E-03   9.961902570581289E-03   1.008720787931787E-02
   1.021408933480817E-02   1.034256676253776E-02   1.047266023736612E-02
   1.060439008666336E-02   1.073777689348644E-02   1.087284149979530E-02
   1.100960500970948E-02   1.114808879280563E-02   1.128831448745663E-02
   1.143030400421254E-02   1.157407952922425E-02   1.171966352771004E-02
   1.186707874746589E-02   1.201634822241978E-02   1.216749527623087E-02
   1.232054352593384E-02   1.247551688562908E-02   1.263243957021933E-02
   1.279133609919332E-02   1.295223130045699E-02   1.311515031421288E-02
   1.328011859688834E-02   1.344716192511318E-02   1.361630639974728E-02
   1.378757844995893E-02   1.396100483735443E-02   1.413661266015966E-02
   1.431442935745419E-02   1.449448271345877E-02   1.467680086187657E-02
   1.486141229028922E-02   1.504834584460802E-02   1.523763073358112E-02
   1.542929653335756E-02   1.562337319210847E-02   1.581989103470665E-02
   1.601888076746483E-02   1.622037348293359E-02   1.642440066475966E-02
   1.663099419260530E-02   1.684018634712955E-02   1.705200981503218E-02
   1.726649769416098E-02   1.748368349868346E-02   1.770360116432344E-02
   1.792628505366360E-02   1.815176996151471E-02   1.838009112035236E-02
   1.861128420582216E-02   1.884538534231407E-02   1.908243110860694E-02
   1.932245854358405E-02   1.956550515202044E-02   1.981160891044316E-02
   2.006080827306517E-02   2.031314217779388E-02   2.056865005231527E-02
   2.082737182025459E-02   2.108934790741444E-02   2.135461924809143E-02
   2.162322729147224E-02   2.189521400811015E-02   2.217062189648298E-02
   2.244949398963362E-02   2.273187386189399E-02   2.301780563569364E-02
   2.330733398845395E-02   2.360050415956910E-02   2.389736195747478E-02
   2.419795376680587E-02   2.450232655564415E-02   2.481052788285712E-02
   2.512260590552920E-02   2.543860938648635E-02   2.575858770191540E-02
   2.608259084907912E-02   2.641066945412846E-02   2.674287478001293E-02
   2.707925873449057E-02   2.741987387823866E-02   2.776477343306639E-02
   2.811401129023091E-02   2.846764201885793E-02   2.882572087446826E-02
   2.918830380761161E-02   2.955544747260897E-02   2.992720923640494E-02
   3.030364718753149E-02   3.068482014518433E-02   3.107078766841362E-02
   3.146161006543010E-02   3.185734840302844E-02   3.225806451612905E-02
   3.266382101743984E-02   3.307468130723965E-02   3.349070958328469E-02
   3.391197085083950E-02   3.433853093283418E-02   3.477045648014942E-02
   3.520781498203072E-02   3.565067477663381E-02   3.609910506170261E-02
   3.655317590538151E-02   3.701295825716364E-02   3.747852395897689E-02
   3.794994575640939E-02   3.842729731007608E-02   3.891065320712842E-02
   3.940008897290872E-02   3.989568108275113E-02   4.039750697393112E-02
   4.090564505776516E-02   4.142017473186264E-02   4.194117639253198E-02
   4.246873144734265E-02   4.300292232784526E-02   4.354383250245173E-02
   4.409154648947732E-02   4.464614987034683E-02   4.520772930296690E-02
   4.577637253526638E-02   4.635216841890726E-02   4.693520692316781E-02
   4.752557914900052E-02   4.812337734326681E-02   4.872869491315075E-02
   4.934162644075418E-02   4.996226769787528E-02   5.059071566097321E-02
   5.122706852632077E-02   5.187142572534786E-02   5.252388794017776E-02
   5.318455711935900E-02   5.385353649379495E-02   5.453093059287394E-02
   5.521684526080210E-02   5.591138767314181E-02   5.661466635355804E-02
   5.732679119077546E-02   5.804787345574870E-02   5.877802581904870E-02
   5.951736236846776E-02   6.026599862684591E-02   6.102405157012163E-02
   6.179163964560958E-02   6.256888279050822E-02   6.335590245064025E-02
   6.415282159942880E-02   6.495976475711218E-02   6.577685801020053E-02
   6.660422903117701E-02   6.744200709844698E-02   6.829032311653792E-02
   6.914930963655355E-02   7.001910087688527E-02   7.089983274418396E-02
   7.179164285459577E-02   7.269467055526482E-02   7.360905694610660E-02
   7.453494490185500E-02   7.547247909438684E-02   7.642180601532714E-02
   7.738307399893868E-02   7.835643324529964E-02   7.934203584377260E-02
   8.034003579676877E-02   8.135058904381126E-02   8.237385348590091E-02
   8.340998901018862E-02   8.445915751495814E-02   8.552152293492284E-02
   8.659725126684101E-02   8.768651059545311E-02   8.878947111974533E-02
   8.990630517954359E-02   9.103718728244199E-02   9.218229413106985E-02
   9.334180465070201E-02   9.451590001721621E-02   9.570476368540221E-02
   9.690858141762693E-02   9.812754131286017E-02   9.936183383606557E-02
   1.006116518479611E-01   1.018771906351538E-01   1.031586479406541E-01
   1.044562239947730E-01   1.057701215464089E-01   1.071005458947274E-01
   1.084477049212397E-01   1.098118091222845E-01   1.111930716419186E-01
   1.125917083052207E-01   1.140079376520152E-01   1.154419809710187E-01
   1.168940623344175E-01   1.183644086328789E-01   1.198532496110034E-01
   1.213608179032230E-01   1.228873490701504E-01   1.244330816353863E-01
   1.259982571227888E-01   1.275831200942122E-01   1.291879181877202E-01
   1.308129021562799E-01   1.324583259069424E-01   1.341244465405164E-01
   1.358115243917407E-01   1.375198230699619E-01   1.392496095003241E-01
   1.410011539654761E-01   1.427747301478044E-01   1.445706151721957E-01
   1.463890896493389E-01   1.482304377195707E-01   1.500949470972733E-01
   1.519829091158304E-01   1.538946187731486E-01   1.558303747777510E-01
   1.577904795954518E-01   1.597752394966167E-01   1.617849646040181E-01
   1.638199689412930E-01   1.658805704820093E-01   1.679670911993500E-01
   1.700798571164224E-01   1.722191983571993E-01   1.743854491981022E-01
   1.765789481202323E-01   1.788000378622589E-01   1.810490654739729E-01
   1.833263823705144E-01   1.856323443872817E-01   1.879673118355315E-01
   1.903316495586781E-01   1.927257269893009E-01   1.951499182068693E-01
   1.976046019961932E-01   2.000901619066086E-01   2.026069863119086E-01
   2.051554684710269E-01   2.077360065894859E-01   2.103490038816166E-01
   2.129948686335623E-01   2.156740142670733E-01   2.183868594041058E-01
   2.211338279322317E-01   2.239153490708722E-01   2.267318574383644E-01
   2.295837931198709E-01   2.324716017361442E-01   2.353957345131560E-01
   2.383566483526017E-01   2.413548059032930E-01   2.443906756334467E-01
   2.474647319038850E-01   2.505774550421541E-01   2.537293314175773E-01
   2.569208535172509E-01   2.601525200229960E-01   2.634248358892792E-01
   2.667383124221120E-01   2.700934673589441E-01   2.734908249495606E-01
   2.769309160379966E-01   2.804142781454841E-01   2.839414555544391E-01
   2.875129993935078E-01   2.911294677236815E-01   2.947914256254944E-01
   2.984994452873193E-01   3.022541060947721E-01   3.060559947212429E-01
   3.099057052195648E-01   3.138038391148351E-01   3.177510054984061E-01
   3.217478211230557E-01   3.257949104993567E-01   3.298929059932582E-01
   3.340424479248934E-01   3.382441846686316E-01   3.424987727543874E-01
   3.468068769702052E-01   3.511691704661337E-01   3.555863348594066E-01
   3.600590603409475E-01   3.645880457832126E-01   3.691739988493912E-01
   3.738176361039806E-01   3.785196831247488E-01   3.832808746161099E-01
   3.881019545239206E-01   3.929836761517251E-01   3.979268022784601E-01
   4.029321052776391E-01   4.080003672380398E-01   4.131323800859046E-01
   4.183289457086820E-01   4.235908760803234E-01   4.289189933881545E-01
   4.343141301613451E-01   4.397771294009924E-01   4.453088447118420E-01
   4.509101404356658E-01   4.565818917863164E-01   4.623249849864818E-01
   4.681403174061589E-01   4.740287977028693E-01   4.799913459636401E-01
   4.860288938487675E-01   4.921423847373924E-01   4.983327738749040E-01
   5.046010285221993E-01   5.109481281068201E-01   5.173750643759896E-01
   5.238828415515756E-01   5.304724764870020E-01   5.371449988261339E-01
   5.439014511641627E-01   5.507428892105116E-01   5.576703819537951E-01
   5.646850118288481E-01   5.717878748858597E-01   5.789800809616339E-01
   5.862627538530022E-01   5.936370314924211E-01   6.011040661257747E-01
   6.086650244924159E-01   6.163210880074729E-01   6.240734529464457E-01
   6.319233306321291E-01   6.398719476238817E-01   6.479205459092798E-01
   6.560703830981813E-01   6.643227326192269E-01   6.726788839188199E-01
   6.811401426626008E-01   6.897078309394630E-01   6.983832874681313E-01
   7.071678678063378E-01   7.160629445626338E-01   7.250699076108589E-01
   7.341901643073141E-01   7.434251397106642E-01   7.527762768046039E-01
   7.622450367233299E-01   7.718328989798436E-01   7.815413616971287E-01
   7.913719418422375E-01   8.013261754633176E-01   8.114056179296251E-01
   8.216118441745515E-01   8.319464489417120E-01   8.424110470341284E-01
   8.530072735665420E-01   8.637367842209076E-01   8.746012555050938E-01
   8.856023850148423E-01   8.967418916990220E-01   9.080215161282147E-01
   9.194430207666868E-01   9.310081902477754E-01   9.427188316527404E-01
   9.545767747931281E-01   9.665838724966782E-01   9.787420008968366E-01
   9.910530597259011E-01   1.003518972611861E+00   1.016141687378966E+00
   1.028923176352081E+00   1.041865436664861E+00   1.054970490571812E+00
   1.068240385764269E+00   1.081677195690353E+00   1.095283019878954E+00
   1.109059984267781E+00   1.123010241535550E+00   1.137135971438341E+00
   1.151439381150190E+00   1.165922705607966E+00   1.180588207860581E+00
   1.195438179422600E+00   1.210474940632291E+00   1.225700841014187E+00
   1.241118259646198E+00   1.256729605531354E+00   1.272537317974211E+00
   1.288543866961999E+00   1.304751753550562E+00   1.321163510255156E+00
   1.337781701446154E+00   1.354608923749742E+00   1.371647806453639E+00
   1.388901011917933E+00   1.406371235991082E+00   1.424061208431137E+00
   1.441973693332286E+00   1.460111489556735E+00   1.478477431172048E+00
   1.497074387893968E+00   1.515905265534816E+00   1.534973006457539E+00
   1.554280590035446E+00   1.573831033117756E+00   1.593627390500975E+00
   1.613672755406218E+00   1.633970259962538E+00   1.654523075696314E+00
   1.675334414026822E+00   1.696407526768015E+00   1.717745706636634E+00
   1.739352287766696E+00   1.761230646230461E+00   1.783384200565949E+00
   1.805816412311102E+00   1.828530786544639E+00   1.851530872433750E+00
   1.874820263788646E+00   1.898402599624110E+00   1.922281564728096E+00
   1.946460890237484E+00   1.970944354221076E+00   1.995735782269934E+00
   2.020839048095124E+00   2.046258074133011E+00   2.071996832158125E+00
   2.098059343903774E+00   2.124449681690444E+00   2.151171969062104E+00
   2.178230381430521E+00   2.205629146727683E+00   2.233372546066408E+00
   2.261464914409288E+00   2.289910641246030E+00   2.318714171279325E+00
   2.347880005119344E+00   2.377412699986963E+00   2.407316870425838E+00
   2.437597189023441E+00   2.468258387141158E+00   2.499305255653578E+00
   2.530742645697070E+00   2.562575469427787E+00   2.594808700789204E+00
   2.627447376289295E+00   2.660496595787517E+00   2.693961523291654E+00
   2.727847387764712E+00   2.762159483941957E+00   2.796903173158223E+00
   2.832083884185640E+00   2.867707114081882E+00   2.903778429049094E+00
   2.940303465303627E+00   2.977287929956706E+00   3.014737601906182E+00
   3.052658332739489E+00   3.091056047647966E+00   3.129936746352692E+00
   3.169306504041938E+00   3.209171472320447E+00   3.249537880170617E+00
   3.290412034925799E+00   3.331800323255834E+00   3.373709212164975E+00
   3.416145250002385E+00   3.459115067485309E+00   3.502625378735151E+00
   3.546682982326568E+00   3.591294762349753E+00   3.636467689486104E+00
   3.682208822097389E+00   3.728525307328638E+00   3.775424382224900E+00
   3.822913374862043E+00   3.870999705491789E+00   3.919690887701128E+00
   3.968994529586343E+00   4.018918334941789E+00   4.069470104463618E+00
   4.120657736968675E+00   4.172489230628677E+00   4.224972684219958E+00
   4.278116298388925E+00   4.331928376933404E+00   4.386417328100160E+00
   4.441591665898668E+00   4.497460011431461E+00   4.554031094241194E+00
   4.611313753674645E+00   4.669316940263903E+00   4.728049717124877E+00
   4.787521261373444E+00   4.847740865559387E+00   4.908717939118374E+00
   4.970462009842218E+00   5.032982725367584E+00   5.096289854683471E+00
   5.160393289657635E+00   5.225303046582205E+00   5.291029267738769E+00
   5.357582222983100E+00   5.424972311349857E+00   5.493210062677456E+00
   5.562306139253366E+00   5.632271337480139E+00   5.703116589562337E+00
   5.774852965214737E+00   5.847491673391979E+00   5.921044064039999E+00
   5.995521629869489E+00   6.070936008151628E+00   6.147298982536457E+00
   6.224622484894083E+00   6.302918597179063E+00   6.382199553318244E+00
   6.462477741122317E+00   6.543765704221453E+00   6.626076144025269E+00
   6.709421921707440E+00   6.793816060215308E+00   6.879271746304711E+00
   6.965802332600462E+00   7.053421339682716E+00   7.142142458199586E+00
   7.231979551006358E+00   7.322946655331552E+00   7.415057984970292E+00
   7.508327932505235E+00   7.602771071555440E+00   7.698402159053537E+00
   7.795236137551509E+00   7.893288137555504E+00   7.992573479890011E+00
   8.093107678091760E+00   8.194906440833776E+00   8.297985674379838E+00
   8.402361485069903E+00   8.508050181836749E+00   8.615068278754263E+00
   8.723432497617830E+00   8.833159770557115E+00   8.944267242681748E+00
   9.056772274760307E+00   9.170692445932934E+00   9.286045556458165E+00
   9.402849630494199E+00   9.521122918915243E+00   9.640883902163244E+00
   9.762151293135480E+00   9.884944040108525E+00   1.000928132969892E+01
   1.013518258986111E+01   1.026266749292316E+01   1.039175595866053E+01
   1.052246815740865E+01   1.065482451321448E+01   1.078884570702791E+01
   1.092455267993315E+01   1.106196663642079E+01   1.120110904770112E+01
   1.134200165505899E+01   1.148466647325095E+01   1.162912579394509E+01
   1.177540218920416E+01   1.192351851501254E+01   1.207349791484749E+01
   1.222536382329535E+01   1.237913996971330E+01   1.253485038193706E+01
   1.269251939003536E+01   1.285217163011148E+01   1.301383204815276E+01
   1.317752590392841E+01   1.334327877493641E+01   1.351111656040013E+01
   1.368106548531499E+01   1.385315210454627E+01   1.402740330697834E+01
   1.420384631971609E+01   1.438250871233926E+01   1.456341840121018E+01
   1.474660365383579E+01   1.493209309328450E+01   1.511991570265861E+01
   1.531010082962298E+01   1.550267819099063E+01   1.569767787736605E+01
   1.589513035784699E+01   1.609506648478523E+01   1.629751749860739E+01
   1.650251503269627E+01   1.671009111833363E+01   1.692027818970518E+01
   1.713310908896842E+01   1.734861707138442E+01   1.756683581051385E+01
   1.778779940347868E+01   1.801154237628987E+01   1.823809968924210E+01
   1.846750674237650E+01   1.869979938101182E+01   1.893501390134546E+01
   1.917318705612478E+01   1.941435606038975E+01   1.965855859728799E+01
   1.990583282396270E+01   2.015621737751488E+01   2.040975138104045E+01
   2.066647444974326E+01   2.092642669712511E+01   2.118964874125354E+01
   2.145618171110846E+01   2.172606725300869E+01   2.199934753711921E+01
   2.227606526404044E+01   2.255626367148019E+01   2.283998654100968E+01
   2.312727820490451E+01   2.341818355307166E+01   2.371274804006365E+01
   2.401101769218087E+01   2.431303911466329E+01   2.461885949897263E+01
   2.492852663016613E+01   2.524208889436309E+01   2.555959528630523E+01
   2.588109541701225E+01   2.620663952153368E+01   2.653627846679814E+01
   2.687006375956155E+01   2.720804755445495E+01   2.755028266213395E+01
   2.789682255753038E+01   2.824772138820793E+01   2.860303398282285E+01
   2.896281585969091E+01   2.932712323546236E+01   2.969601303390584E+01
   3.006954289480285E+01   3.044777118295416E+01   3.083075699729928E+01
   3.121856018015089E+01   3.161124132654530E+01   3.200886179371052E+01
   3.241148371065358E+01   3.281916998786810E+01   3.323198432716435E+01
   3.364999123162271E+01   3.407325601567242E+01   3.450184481529720E+01
   3.493582459836891E+01   3.537526317511160E+01   3.582022920869694E+01
   3.627079222597292E+01   3.672702262832774E+01   3.718899170268995E+01
   3.765677163266729E+01   3.813043550982555E+01   3.861005734510915E+01
   3.909571208040573E+01   3.958747560025570E+01   4.008542474370957E+01