<UPF version="2.0.1">
  <PP_INFO>
    Generated using "atomic" code by A. Dal Corso  v.7.2
    Author: ADC
    Generation date: 31May2024
    Pseudopotential type: PAW
    Element: Gd
    Functional:  SLA  PW   BEEX BEEC
    Suggested minimum cutoff for wavefunctions: 118. Ry
    Suggested minimum cutoff for charge density: 574. Ry
    The Pseudo was generated with a Scalar-Relativistic Calculation
    Local Potential by smoothing AE potential with Bessel fncs, cutoff radius:   1.7000
    Valence configuration: 
    nl pn  l   occ       Rcut    Rcut US       E pseu
    5S  1  0  2.00      1.300      1.600    -3.411078
    6S  2  0  2.00      1.300      1.600    -0.280697
    5P  2  1  6.00      1.400      1.800    -1.810339
    4D  3  2 10.00      1.000      1.200   -10.417300
    5D  4  2  0.00      1.000      1.200    -0.120030
    4F  4  3  8.00      1.100      1.300    -0.249083
    Generation configuration:
    5S  1  0  2.00      1.300      1.600    -3.411003
    6S  2  0  2.00      1.300      1.600    -0.280673
    5P  2  1  6.00      1.400      1.800    -1.810270
    6P  3  1  0.00      1.400      1.800     0.300000
    4D  3  2 10.00      1.000      1.200   -10.417239
    5D  4  2  0.00      1.000      1.200    -0.120003
    4F  4  3  8.00      1.100      1.300    -0.249014
    4F  4  3  0.00      1.100      1.300     1.000000
    Pseudization used: troullier-martins
    <PP_INPUTFILE>
@input
title='Gd',
zed=64.0,
rel=1,
config='[Xe] 4f8 5d0.0 6s2. 6p0.',
iswitch=3,
dft='SLA-PW-BEEX-BEEC'
/
@inputp
lpaw=.true.,
pseudotype=3,
file_pseudopw='Gd.beef-spdfn-kjpaw_psl.1.0.0.UPF',
author='ADC',
lloc=-1,
rcloc=1.7,
which_augfun='PSQ',
rmatch_augfun_nc=.true.,
nlcc=.true.,
new_core_ps=.true.,
rcore=1.2,
tm=.true.
/
8
5S  1  0  2.00  0.00  1.30  1.60  0.0
6S  2  0  2.00  0.00  1.30  1.60  0.0
5P  2  1  6.00  0.00  1.40  1.80  0.0
6P  3  1  0.00  0.30  1.40  1.80  0.0
4D  3  2 10.00  0.00  1.00  1.20  0.0
5D  4  2  0.00  0.00  1.00  1.20  0.0
4F  4  3  8.00  0.00  1.10  1.30  0.0
4F  4  3  0.00  1.00  1.10  1.30  0.0
    </PP_INPUTFILE>
  </PP_INFO>
    <!-- END OF HUMAN READABLE SECTION -->
  <PP_HEADER generated="Generated using 'atomic' code by A. Dal Corso  v.7.2" author="ADC" date="31May2024" comment="" element="Gd" pseudo_type="PAW" relativistic="scalar" is_ultrasoft="true" is_paw="true" is_coulomb="false" has_so="false" has_wfc="true" has_gipaw="false" paw_as_gipaw="false" core_correction="true" functional=" SLA  PW   BEEX BEEC" z_valence="28.0000000000000" total_psenergy="-1214.12396052672" wfc_cutoff="118.430529182632" rho_cutoff="573.886636412559" l_max="3" l_max_rho="6" l_local="-1" mesh_size="1263" number_of_wfc="6" number_of_proj="8"/>
  <PP_MESH mesh="1263" dx="1.250000000000000E-002" xmin="-7.00000000000000" rmax="100.000000000000" zmesh="64.0000000000000">
    <PP_R>
   1.424815571178932E-05   1.442737544795347E-05   1.460884949088410E-05
   1.479260619626959E-05   1.497867427646906E-05   1.516708280499858E-05
   1.535786122107404E-05   1.555103933421111E-05   1.574664732888298E-05
   1.594471576923679E-05   1.614527560386933E-05   1.634835817066279E-05
   1.655399520168141E-05   1.676221882812964E-05   1.697306158537278E-05
   1.718655641802060E-05   1.740273668507505E-05   1.762163616514269E-05
   1.784328906171262E-05   1.806773000850090E-05   1.829499407486210E-05
   1.852511677126895E-05   1.875813405486095E-05   1.899408233506273E-05
   1.923299847927314E-05   1.947491981862577E-05   1.971988415382210E-05
   1.996792976103788E-05   2.021909539790388E-05   2.047342030956188E-05
   2.073094423479674E-05   2.099170741224573E-05   2.125575058668584E-05
   2.152311501540027E-05   2.179384247462498E-05   2.206797526607628E-05
   2.234555622356054E-05   2.262662871966712E-05   2.291123667254536E-05
   2.319942455276698E-05   2.349123739027457E-05   2.378672078141768E-05
   2.408592089607735E-05   2.438888448488019E-05   2.469565888650339E-05
   2.500629203507132E-05   2.532083246764542E-05   2.563932933180822E-05
   2.596183239334272E-05   2.628839204400846E-05   2.661905930941522E-05
   2.695388585699597E-05   2.729292400407999E-05   2.763622672606751E-05
   2.798384766470734E-05   2.833584113647836E-05   2.869226214107667E-05
   2.905316637000939E-05   2.941861021529652E-05   2.978865077828245E-05
   3.016334587855796E-05   3.054275406299480E-05   3.092693461489370E-05
   3.131594756324749E-05   3.170985369212084E-05   3.210871455014780E-05
   3.251259246014890E-05   3.292155052886928E-05   3.333565265683919E-05
   3.375496354835866E-05   3.417954872160758E-05   3.460947451888308E-05
   3.504480811696568E-05   3.548561753761573E-05   3.593197165820213E-05
   3.638394022246428E-05   3.684159385140989E-05   3.730500405434958E-05
   3.777424324007037E-05   3.824938472814973E-05   3.873050276041185E-05
   3.921767251252810E-05   3.971097010576341E-05   4.021047261887031E-05
   4.071625810013279E-05   4.122840557956127E-05   4.174699508124142E-05
   4.227210763583792E-05   4.280382529325576E-05   4.334223113546076E-05
   4.388740928946114E-05   4.443944494045262E-05   4.499842434512880E-05
   4.556443484515887E-05   4.613756488083510E-05   4.671790400489157E-05
   4.730554289649711E-05   4.790057337542411E-05   4.850308841639545E-05
   4.911318216361219E-05   4.973094994546355E-05   5.035648828942229E-05
   5.098989493712732E-05   5.163126885965597E-05   5.228071027298863E-05
   5.293832065366737E-05   5.360420275465210E-05   5.427846062137584E-05
   5.496119960800201E-05   5.565252639388640E-05   5.635254900024579E-05
   5.706137680703662E-05   5.777912057004581E-05   5.850589243819657E-05
   5.924180597107200E-05   5.998697615665881E-05   6.074151942931454E-05
   6.150555368796068E-05   6.227919831450454E-05   6.306257419249310E-05
   6.385580372600104E-05   6.465901085875682E-05   6.547232109350905E-05
   6.629586151163657E-05   6.712976079300531E-05   6.797414923607452E-05
   6.882915877825635E-05   6.969492301653128E-05   7.057157722832292E-05
   7.145925839263552E-05   7.235810521145697E-05   7.326825813143142E-05
   7.418985936580434E-05   7.512305291664359E-05   7.606798459734005E-05
   7.702480205539144E-05   7.799365479547214E-05   7.897469420279397E-05
   7.996807356676025E-05   8.097394810491757E-05   8.199247498720913E-05
   8.302381336053243E-05   8.406812437360657E-05   8.512557120215202E-05
   8.619631907438706E-05   8.728053529684531E-05   8.837838928051731E-05
   8.949005256732164E-05   9.061569885690854E-05   9.175550403380081E-05
   9.290964619487647E-05   9.407830567719623E-05   9.526166508618184E-05
   9.645990932414855E-05   9.767322561919627E-05   9.890180355446480E-05
   1.001458350977560E-04   1.014055146315295E-04   1.026810389832753E-04
   1.039726074562683E-04   1.052804218607104E-04   1.066046865452629E-04
   1.079456084289771E-04   1.093033970336253E-04   1.106782645164394E-04
   1.120704257032609E-04   1.134800981221077E-04   1.149075020371631E-04
   1.163528604831929E-04   1.178163993003948E-04   1.192983471696869E-04
   1.207989356484386E-04   1.223183992066527E-04   1.238569752636016E-04
   1.254149042249243E-04   1.269924295201908E-04   1.285897976409380E-04
   1.302072581791845E-04   1.318450638664303E-04   1.335034706131459E-04
   1.351827375487599E-04   1.368831270621473E-04   1.386049048426290E-04
   1.403483399214863E-04   1.421137047139971E-04   1.439012750620022E-04
   1.457113302770051E-04   1.475441531838158E-04   1.494000301647424E-04
   1.512792512043388E-04   1.531821099347161E-04   1.551089036814221E-04
   1.570599335098998E-04   1.590355042725293E-04   1.610359246562616E-04
   1.630615072308516E-04   1.651125684976977E-04   1.671894289392957E-04
   1.692924130693150E-04   1.714218494833043E-04   1.735780709100360E-04
   1.757614142634948E-04   1.779722206955215E-04   1.802108356491192E-04
   1.824776089124288E-04   1.847728946733847E-04   1.870970515750566E-04
   1.894504427716890E-04   1.918334359854445E-04   1.942464035638607E-04
   1.966897225380312E-04   1.991637746815167E-04   2.016689465699980E-04
   2.042056296416796E-04   2.067742202584520E-04   2.093751197678254E-04
   2.120087345656396E-04   2.146754761595647E-04   2.173757612334005E-04
   2.201100117121832E-04   2.228786548281134E-04   2.256821231873106E-04
   2.285208548374097E-04   2.313952933360065E-04   2.343058878199641E-04
   2.372530930755929E-04   2.402373696097099E-04   2.432591837215952E-04
   2.463190075758516E-04   2.494173192761814E-04   2.525546029400918E-04
   2.557313487745379E-04   2.589480531525196E-04   2.622052186906402E-04
   2.655033543276417E-04   2.688429754039279E-04   2.722246037420862E-04
   2.756487677284244E-04   2.791160023955321E-04   2.826268495058797E-04
   2.861818576364715E-04   2.897815822645607E-04   2.934265858544439E-04
   2.971174379453477E-04   3.008547152404208E-04   3.046390016968437E-04
   3.084708886170747E-04   3.123509747412411E-04   3.162798663406936E-04
   3.202581773127384E-04   3.242865292765585E-04   3.283655516703442E-04
   3.324958818496434E-04   3.366781651869495E-04   3.409130551725433E-04
   3.452012135166007E-04   3.495433102525875E-04   3.539400238419527E-04
   3.583920412801395E-04   3.629000582039309E-04   3.674647790001423E-04
   3.720869169156856E-04   3.767671941690137E-04   3.815063420629693E-04
   3.863051010990531E-04   3.911642210931273E-04   3.960844612925773E-04
   4.010665904949443E-04   4.061113871680523E-04   4.112196395716455E-04
   4.163921458805545E-04   4.216297143094138E-04   4.269331632389464E-04
   4.323033213438372E-04   4.377410277222160E-04   4.432471320267672E-04
   4.488224945974911E-04   4.544679865961324E-04   4.601844901423014E-04
   4.659728984513080E-04   4.718341159737266E-04   4.777690585367202E-04
   4.837786534871389E-04   4.898638398364201E-04   4.960255684073118E-04
   5.022648019824386E-04   5.085825154547411E-04   5.149796959798026E-04
   5.214573431300950E-04   5.280164690511650E-04   5.346580986197818E-04
   5.413832696040785E-04   5.481930328257037E-04   5.550884523240151E-04
   5.620706055223386E-04   5.691405833963162E-04   5.762994906443752E-04
   5.835484458603378E-04   5.908885817082044E-04   5.983210450991353E-04
   6.058469973706564E-04   6.134676144681221E-04   6.211840871284581E-04
   6.289976210662164E-04   6.369094371619723E-04   6.449207716530867E-04
   6.530328763268737E-04   6.612470187161924E-04   6.695644822975029E-04
   6.779865666914121E-04   6.865145878657409E-04   6.951498783411488E-04
   7.038937873993410E-04   7.127476812938970E-04   7.217129434637519E-04
   7.307909747493591E-04   7.399831936115770E-04   7.492910363533043E-04
   7.587159573439058E-04   7.682594292464622E-04   7.779229432478741E-04
   7.877080092918653E-04   7.976161563149127E-04   8.076489324851467E-04
   8.178079054442564E-04   8.280946625524348E-04   8.385108111364084E-04
   8.490579787405858E-04   8.597378133813630E-04   8.705519838046316E-04
   8.815021797465214E-04   8.925901121974264E-04   9.038175136693513E-04
   9.151861384666176E-04   9.266977629599804E-04   9.383541858641871E-04
   9.501572285190308E-04   9.621087351739412E-04   9.742105732761473E-04
   9.864646337624751E-04   9.988728313548062E-04   1.011437104859259E-03
   1.024159417469131E-03   1.037041757071650E-03   1.050086136558590E-03
   1.063294594140785E-03   1.076669193666603E-03   1.090212024944432E-03
   1.103925204069212E-03   1.117810873753082E-03   1.131871203660180E-03
   1.146108390745658E-03   1.160524659598967E-03   1.175122262791444E-03
   1.189903481228287E-03   1.204870624504949E-03   1.220026031268018E-03
   1.235372069580636E-03   1.250911137292508E-03   1.266645662414582E-03
   1.282578103498419E-03   1.298710950020353E-03   1.315046722770475E-03
   1.331587974246513E-03   1.348337289052665E-03   1.365297284303444E-03
   1.382470610032614E-03   1.399859949607261E-03   1.417468020147070E-03
   1.435297572948890E-03   1.453351393916618E-03   1.471632303996511E-03
   1.490143159617963E-03   1.508886853139825E-03   1.527866313302345E-03
   1.547084505684787E-03   1.566544433168809E-03   1.586249136407673E-03
   1.606201694301350E-03   1.626405224477605E-03   1.646862883779131E-03
   1.667577868756816E-03   1.688553416169208E-03   1.709792803488265E-03
   1.731299349411467E-03   1.753076414380372E-03   1.775127401105684E-03
   1.797455755098944E-03   1.820064965210890E-03   1.842958564176602E-03
   1.866140129167495E-03   1.889613282350261E-03   1.913381691452843E-03
   1.937449070337519E-03   1.961819179581207E-03   1.986495827063057E-03
   2.011482868559441E-03   2.036784208346433E-03   2.062403799809847E-03
   2.088345646062976E-03   2.114613800572074E-03   2.141212367789726E-03
   2.168145503796176E-03   2.195417416948721E-03   2.223032368539275E-03
   2.250994673460208E-03   2.279308700878553E-03   2.307978874918701E-03
   2.337009675353673E-03   2.366405638305103E-03   2.396171356952008E-03
   2.426311482248485E-03   2.456830723650432E-03   2.487733849851411E-03
   2.519025689527762E-03   2.550711132093101E-03   2.582795128462290E-03
   2.615282691825040E-03   2.648178898429221E-03   2.681488888374043E-03
   2.715217866413206E-03   2.749371102768149E-03   2.783953933951539E-03
   2.818971763601107E-03   2.854430063323980E-03   2.890334373551630E-03
   2.926690304405580E-03   2.963503536573989E-03   3.000779822199284E-03
   3.038524985776931E-03   3.076744925065533E-03   3.115445612008363E-03
   3.154633093666492E-03   3.194313493163657E-03   3.234493010643011E-03
   3.275177924235904E-03   3.316374591042862E-03   3.358089448126885E-03
   3.400329013519265E-03   3.443099887238030E-03   3.486408752319217E-03
   3.530262375861108E-03   3.574667610081602E-03   3.619631393388889E-03
   3.665160751465589E-03   3.711262798366534E-03   3.757944737630347E-03
   3.805213863405012E-03   3.853077561587602E-03   3.901543310978338E-03
   3.950618684449164E-03   4.000311350127034E-03   4.050629072592057E-03
   4.101579714090740E-03   4.153171235764479E-03   4.205411698893499E-03
   4.258309266156448E-03   4.311872202905831E-03   4.366108878459491E-03
   4.421027767408327E-03   4.476637450940471E-03   4.532946618182116E-03
   4.589964067555202E-03   4.647698708152198E-03   4.706159561128159E-03
   4.765355761110302E-03   4.825296557625312E-03   4.885991316544592E-03
   4.947449521547708E-03   5.009680775604230E-03   5.072694802474216E-03
   5.136501448227566E-03   5.201110682782495E-03   5.266532601463350E-03
   5.332777426578028E-03   5.399855509015228E-03   5.467777329861805E-03
   5.536553502040450E-03   5.606194771967996E-03   5.676712021234553E-03
   5.748116268303788E-03   5.820418670234580E-03   5.893630524424329E-03
   5.967763270374204E-03   6.042828491476583E-03   6.118837916824986E-03
   6.195803423046766E-03   6.273737036158856E-03   6.352650933446863E-03
   6.432557445367791E-03   6.513469057476696E-03   6.595398412377588E-03
   6.678358311698857E-03   6.762361718093553E-03   6.847421757264834E-03
   6.933551720016876E-03   7.020765064331590E-03   7.109075417471464E-03
   7.198496578108843E-03   7.289042518482008E-03   7.380727386578357E-03
   7.473565508345066E-03   7.567571389927541E-03   7.662759719936036E-03
   7.759145371740776E-03   7.856743405795955E-03   7.955569071992959E-03
   8.055637812043192E-03   8.156965261890877E-03   8.259567254156211E-03
   8.363459820609225E-03   8.468659194674802E-03   8.575181813969166E-03
   8.683044322868306E-03   8.792263575108686E-03   8.902856636420675E-03
   9.014840787195107E-03   9.128233525183375E-03   9.243052568231488E-03
   9.359315857048526E-03   9.477041558009901E-03   9.596248065995907E-03
   9.716954007265943E-03   9.839178242368910E-03   9.962939869090212E-03
   1.008825822543582E-02   1.021515289265387E-02   1.034364369829428E-02
   1.047375071930687E-02   1.060549428517835E-02   1.073889498110894E-02
   1.087397365122878E-02   1.101075140185490E-02   1.114924960478911E-02
   1.128948990065738E-02   1.143149420229128E-02   1.157528469815185E-02
   1.172088385579659E-02   1.186831442539014E-02   1.201759944325892E-02
   1.216876223549071E-02   1.232182642157933E-02   1.247681591811527E-02
   1.263375494252270E-02   1.279266801684347E-02   1.295357997156876E-02
   1.311651594951887E-02   1.328150140977185E-02   1.344856213164153E-02
   1.361772421870560E-02   1.378901410288431E-02   1.396245854857056E-02
   1.413808465681187E-02   1.431591986954497E-02   1.449599197388364E-02
   1.467832910646056E-02   1.486295975782366E-02   1.504991277688785E-02
   1.523921737544270E-02   1.543090313271690E-02   1.562500000000001E-02
   1.582153830532242E-02   1.602054875819421E-02   1.622206245440352E-02
   1.642611088087538E-02   1.663272592059156E-02   1.684193985757237E-02
   1.705378538192113E-02   1.726829559493200E-02   1.748550401426220E-02
   1.770544457916917E-02   1.792815165581364E-02   1.815366004262943E-02
   1.838200497576080E-02   1.861322213456810E-02   1.884734764720283E-02
   1.908441809625266E-02   1.932447052445758E-02   1.956754244049789E-02
   1.981367182485500E-02   2.006289713574597E-02   2.031525731513268E-02
   2.057079179480660E-02   2.082954050255005E-02   2.109154386837506E-02
   2.135684283084058E-02   2.162547884344925E-02   2.189749388112459E-02
   2.217293044676965E-02   2.245183157790820E-02   2.273424085340940E-02
   2.302020240029713E-02   2.330976090064486E-02   2.360296159855739E-02
   2.389985030724030E-02   2.420047341615834E-02   2.450487789828390E-02
   2.481311131743662E-02   2.512522183571537E-02   2.544125822102360E-02
   2.576126985468951E-02   2.608530673918193E-02   2.641341950592331E-02
   2.674565942320102E-02   2.708207840417806E-02   2.742272901500468E-02
   2.776766448303186E-02   2.811693870512827E-02   2.847060625610172E-02
   2.882872239722657E-02   2.919134308487849E-02   2.955852497927766E-02
   2.993032545334214E-02   3.030680260165242E-02   3.068801524952887E-02
   3.107402296222333E-02   3.146488605422621E-02   3.186066559869088E-02
   3.226142343697636E-02   3.266722218831026E-02   3.307812525957306E-02
   3.349419685520563E-02   3.391550198724130E-02   3.434210648546410E-02
   3.477407700769482E-02   3.521148105020640E-02   3.565438695827038E-02
   3.610286393683602E-02   3.655698206134363E-02   3.701681228867408E-02
   3.748242646823592E-02   3.795389735319202E-02   3.843129861182736E-02
   3.891470483905987E-02   3.940419156809608E-02   3.989983528223325E-02
   4.040171342681011E-02   4.090990442130785E-02   4.142448767160325E-02
   4.194554358237611E-02   4.247315356967260E-02   4.300740007362665E-02
   4.354836657134143E-02   4.409613758993284E-02   4.465079871973696E-02
   4.521243662768378E-02   4.578113907083910E-02   4.635699491011670E-02
   4.694009412416304E-02   4.753052782341664E-02   4.812838826434426E-02
   4.873376886385615E-02   4.934676421390264E-02   4.996747009625433E-02
   5.059598349746816E-02   5.123240262404180E-02   5.187682691775858E-02
   5.252935707122548E-02   5.319009504360658E-02   5.385914407655432E-02
   5.453660871034129E-02   5.522259480019486E-02   5.591720953283719E-02
   5.662056144323350E-02   5.733276043155072E-02   5.805391778032978E-02
   5.878414617187362E-02   5.952355970585410E-02   6.027227391714025E-02
   6.103040579385084E-02   6.179807379563405E-02   6.257539787217697E-02
   6.336249948194807E-02   6.415950161117523E-02   6.496652879306265E-02
   6.578370712724942E-02   6.661116429951280E-02   6.744902960171947E-02
   6.829743395202750E-02   6.915650991534275E-02   7.002639172403230E-02
   7.090721529889851E-02   7.179911827041704E-02   7.270224000024177E-02
   7.361672160298037E-02   7.454270596824383E-02   7.548033778297314E-02
   7.642976355404699E-02   7.739113163117371E-02   7.836459223007128E-02
   7.935029745593880E-02   8.034840132722325E-02   8.135905979968518E-02
   8.238243079076710E-02   8.341867420426842E-02   8.446795195533077E-02
   8.553042799573753E-02   8.660626833953165E-02   8.769564108895563E-02
   8.879871646071791E-02   8.991566681258958E-02   9.104666667033556E-02
   9.219189275498468E-02   9.335152401044261E-02   9.452574163145233E-02
   9.571472909190608E-02   9.691867217351356E-02   9.813775899483074E-02
   9.937218004065368E-02   1.006221281917822E-01   1.018877987551580E-01
   1.031693894943817E-01   1.044671006606136E-01   1.057811350238637E-01
   1.071116979046747E-01   1.084589972062037E-01   1.098232434467078E-01
   1.112046497924375E-01   1.126034320909449E-01   1.140198089048099E-01
   1.154540015457915E-01   1.169062341094076E-01   1.183767335099508E-01
   1.198657295159443E-01   1.213734547860434E-01   1.229001449053890E-01
   1.244460384224184E-01   1.260113768861387E-01   1.275964048838696E-01
   1.292013700794605E-01   1.308265232519886E-01   1.324721183349434E-01
   1.341384124559046E-01   1.358256659767189E-01   1.375341425341814E-01
   1.392641090812303E-01   1.410158359286582E-01   1.427895967873489E-01
   1.445856688110453E-01   1.464043326396552E-01   1.482458724431020E-01
   1.501105759657267E-01   1.519987345712482E-01   1.539106432882905E-01
   1.558466008564801E-01   1.578069097731259E-01   1.597918763404844E-01
   1.618018107136202E-01   1.638370269488684E-01   1.658978430529064E-01
   1.679845810324431E-01   1.700975669445335E-01   1.722371309475251E-01
   1.744036073526465E-01   1.765973346762436E-01   1.788186556926739E-01
   1.810679174878656E-01   1.833454715135502E-01   1.856516736421782E-01
   1.879868842225240E-01   1.903514681359919E-01   1.927457948536291E-01
   1.951702384938565E-01   1.976251778809255E-01   2.001109966041100E-01
   2.026280830776428E-01   2.051768306014066E-01   2.077576374223873E-01
   2.103709067969015E-01   2.130170470536057E-01   2.156964716572985E-01
   2.184095992735256E-01   2.211568538339970E-01   2.239386646028271E-01
   2.267554662436082E-01   2.296076988873273E-01   2.324958082011382E-01
   2.354202454579968E-01   2.383814676071745E-01   2.413799373456567E-01
   2.444161231904403E-01   2.474904995517410E-01   2.506035468071199E-01
   2.537557513765444E-01   2.569476057983916E-01   2.601796088064086E-01
   2.634522654076413E-01   2.667660869613416E-01   2.701215912588695E-01
   2.735193026045983E-01   2.769597518978383E-01   2.804434767157914E-01
   2.839710213975479E-01   2.875429371291415E-01   2.911597820296721E-01
   2.948221212385139E-01   2.985305270036197E-01   3.022855787709346E-01
   3.060878632749375E-01   3.099379746303177E-01   3.138365144248074E-01
   3.177840918131816E-01   3.217813236124381E-01   3.258288343981784E-01
   3.299272566021973E-01   3.340772306113024E-01   3.382794048673761E-01
   3.425344359686949E-01   3.468429887725257E-01   3.512057364990098E-01
   3.556233608363553E-01   3.600965520473530E-01   3.646260090772300E-01
   3.692124396628629E-01   3.738565604433617E-01   3.785590970720467E-01
   3.833207843298338E-01   3.881423662400445E-01   3.930245961846621E-01
   3.979682370220484E-01   4.029740612061418E-01   4.080428509071559E-01
   4.131753981337938E-01   4.183725048570021E-01   4.236349831352798E-01
   4.289636552415643E-01   4.343593537917138E-01   4.398229218746040E-01
   4.453552131838640E-01   4.509570921512662E-01   4.566294340817961E-01
   4.623731252904214E-01   4.681890632405785E-01   4.740781566844052E-01
   4.800413258047334E-01   4.860795023588699E-01   4.921936298241867E-01
   4.983846635455393E-01   5.046535708845421E-01   5.110013313707215E-01
   5.174289368545676E-01   5.239373916625149E-01   5.305277127538682E-01
   5.372009298797062E-01   5.439580857437820E-01   5.508002361654463E-01
   5.577284502446234E-01   5.647438105288586E-01   5.718474131824689E-01
   5.790403681578218E-01   5.863237993687659E-01   5.936988448662466E-01
   6.011666570161274E-01   6.087284026792498E-01   6.163852633937587E-01
   6.241384355597180E-01   6.319891306260533E-01   6.399385752798410E-01
   6.479880116379808E-01   6.561386974412814E-01   6.643919062509813E-01
   6.727489276477491E-01   6.812110674331802E-01   6.897796478338321E-01
   6.984560077078259E-01   7.072415027540435E-01   7.161375057239608E-01
   7.251454066361406E-01   7.342666129934267E-01   7.435025500028704E-01
   7.528546607984193E-01   7.623244066664131E-01   7.719132672739096E-01
   7.816227408998870E-01   7.914543446693542E-01   8.014096147904020E-01
   8.114901067942417E-01   8.216973957782574E-01   8.320330766521195E-01
   8.424987643869932E-01   8.530960942678795E-01   8.638267221491318E-01
   8.746923247131899E-01   8.856945997325597E-01   8.968352663350975E-01
   9.081160652726256E-01   9.195387591929283E-01   9.311051329151717E-01
   9.428169937087812E-01   9.546761715758340E-01   9.666845195369991E-01
   9.788439139210759E-01   9.911562546581772E-01   1.003623465576592E+00
   1.016247494703391E+00   1.029030314568809E+00   1.041973922514456E+00
   1.055080341005409E+00   1.068351617946221E+00   1.081789827000916E+00
   1.095397067916999E+00   1.109175466853546E+00   1.123127176713423E+00
   1.137254377479682E+00   1.151559276556185E+00   1.166044109112515E+00
   1.180711138433229E+00   1.195562656271498E+00   1.210600983207202E+00
   1.225828469009518E+00   1.241247493004084E+00   1.256860464444771E+00
   1.272669822890127E+00   1.288678038584579E+00   1.304887612844395E+00
   1.321301078448532E+00   1.337921000034385E+00   1.354749974498514E+00
   1.371790631402420E+00   1.389045633383411E+00   1.406517676570655E+00
   1.424209491006444E+00   1.442123841072779E+00   1.460263525923307E+00
   1.478631379920690E+00   1.497230273079484E+00   1.516063111514585E+00
   1.535132837895314E+00   1.554442431905217E+00   1.573994910707643E+00
   1.593793329417184E+00   1.613840781577045E+00   1.634140399642410E+00
   1.654695355469905E+00   1.675508860813196E+00   1.696584167824839E+00
   1.717924569564431E+00   1.739533400513162E+00   1.761414037094832E+00
   1.783569898203422E+00   1.806004445737309E+00   1.828721185140186E+00
   1.851723665948802E+00   1.875015482347585E+00   1.898600273730234E+00
   1.922481725268385E+00   1.946663568487429E+00   1.971149581849565E+00
   1.995943591344202E+00   2.021049471085765E+00   2.046471143919042E+00
   2.072212582032135E+00   2.098277807577118E+00   2.124670893298515E+00
   2.151395963169668E+00   2.178457193037114E+00   2.205858811273078E+00
   2.233605099436156E+00   2.261700392940328E+00   2.290149081732362E+00
   2.318955610977762E+00   2.348124481755328E+00   2.377660251760463E+00
   2.407567536017325E+00   2.437851007599924E+00   2.468515398362306E+00
   2.499565499677917E+00   2.531006163188255E+00   2.562842301560966E+00
   2.595078889257439E+00   2.627720963310087E+00   2.660773624109393E+00
   2.694242036200849E+00   2.728131429091942E+00   2.762447098069257E+00
   2.797194405025888E+00   2.832378779299240E+00   2.868005718519375E+00
   2.904080789468034E+00   2.940609628948445E+00   2.977597944666096E+00
   3.015051516120572E+00   3.052976195508609E+00   3.091377908638524E+00
   3.130262655856122E+00   3.169636512982267E+00   3.209505632262240E+00
   3.249876243327041E+00   3.290754654166790E+00   3.332147252116345E+00
   3.374060504853349E+00   3.416500961408815E+00   3.459475253190424E+00
   3.502990095018705E+00   3.547052286176220E+00   3.591668711469985E+00
   3.636846342307223E+00   3.682592237784666E+00   3.728913545791557E+00
   3.775817504126512E+00   3.823311441628447E+00   3.871402779321724E+00
   3.920099031575697E+00   3.969407807278860E+00   4.019336811027734E+00
   4.069893844330735E+00   4.121086806827176E+00   4.172923697521596E+00
   4.225412616033637E+00   4.278561763863602E+00   4.332379445673972E+00
   4.386874070587024E+00   4.442054153498765E+00   4.497928316409423E+00
   4.554505289770628E+00   4.611793913849571E+00   4.669803140110321E+00
   4.728542032612498E+00   4.788019769427567E+00   4.848245644072913E+00
   4.909229066963976E+00   4.970979566884657E+00   5.033506792476196E+00
   5.096820513744813E+00   5.160930623588264E+00   5.225847139341646E+00
   5.291580204342618E+00   5.358140089516318E+00   5.425537194980230E+00
   5.493782051669200E+00   5.562885322980929E+00   5.632857806442152E+00
   5.703710435395764E+00   5.775454280709202E+00   5.848100552504253E+00
   5.921660601908686E+00   5.996145922829879E+00   6.071568153750762E+00
   6.147939079548377E+00   6.225270633335249E+00   6.303574898323992E+00
   6.382864109715321E+00   6.463150656609825E+00   6.544447083943812E+00
   6.626766094449446E+00   6.710120550639599E+00   6.794523476817635E+00
   6.879988061112483E+00   6.966527657539331E+00   7.054155788086180E+00
   7.142886144826709E+00   7.232732592059681E+00   7.323709168475266E+00
   7.415830089348632E+00   7.509109748761084E+00   7.603562721849181E+00
   7.699203767082137E+00   7.796047828567844E+00   7.894110038387954E+00
   7.993405718962253E+00   8.093950385442851E+00   8.195759748138444E+00
   8.298849714969080E+00   8.403236393951827E+00   8.508936095717647E+00
   8.615965336059988E+00   8.724340838515406E+00   8.834079536976644E+00
   8.945198578338616E+00   9.057715325177600E+00   9.171647358464210E+00
   9.287012480310441E+00   9.403828716751285E+00   9.522114320561370E+00
   9.641887774106932E+00   9.763167792233773E+00   9.885973325191470E+00
   1.001032356159439E+01   1.013623793141998E+01   1.026373610904468E+01
   1.039283801631816E+01   1.052356382567609E+01   1.065593396329212E+01
   1.078996911226959E+01   1.092569021587322E+01   1.106311848080156E+01
   1.120227538050062E+01   1.134318265851908E+01   1.148586233190583E+01
   1.163033669465011E+01   1.177662832116503E+01   1.192476006981487E+01
   1.207475508648672E+01   1.222663680820712E+01   1.238042896680409E+01
   1.253615559261531E+01   1.269384101824287E+01   1.285350988235535E+01
   1.301518713353762E+01   1.317889803418912E+01   1.334466816447113E+01
   1.351252342630378E+01   1.368249004741322E+01   1.385459458542982E+01
   1.402886393203779E+01   1.420532531717708E+01   1.438400631329814E+01
   1.456493483967013E+01   1.474813916674342E+01   1.493364792056684E+01
   1.512149008726059E+01   1.531169501754538E+01   1.550429243132854E+01
   1.569931242234783E+01   1.589678546287361E+01   1.609674240847023E+01