<UPF version="2.0.1">
  <PP_INFO>
    Generated using "atomic" code by A. Dal Corso  v.7.2
    Author: Lorenzo Paulatto
    Generation date: 31May2024
    Pseudopotential type: PAW
    Element:  H
    Functional:  SLA  PW   BEEX BEEC
    Suggested minimum cutoff for wavefunctions:  46. Ry
    Suggested minimum cutoff for charge density: 219. Ry
    The Pseudo was generated with a Scalar-Relativistic Calculation
    L component and cutoff radius for Local Potential:  1   0.7500
    Valence configuration: 
    nl pn  l   occ       Rcut    Rcut US       E pseu
    1S  1  0  1.00      0.800      1.000    -0.522097
    Generation configuration:
    1S  1  0  1.00      0.800      1.000    -0.522094
    1S  1  0  0.00      0.800      1.000     0.050000
    2P  2  1 -1.00      0.750      0.750     0.050000
    Pseudization used: troullier-martins
    <PP_INPUTFILE>
@input
title='H',
zed=1.,
rel=1,
config='1s1 2p-2',
iswitch=3,
dft='SLA-PW-BEEX-BEEC'
/
@inputp
lpaw=.true.,
pseudotype=3,
file_pseudopw='H.beef-kjpaw_psl.1.0.0.UPF',
author='Lorenzo Paulatto',
lloc=1,
which_augfun='PSQ',
rmatch_augfun_nc=.true.,
tm=.true.
/
3
1S  1  0  1.00  0.00  0.80  1.00  0.0
1S  1  0  0.00  0.05  0.80  1.00  0.0
2P  2  1 -1.00  0.05  0.75  0.75  0.0
    </PP_INPUTFILE>
  </PP_INFO>
    <!-- END OF HUMAN READABLE SECTION -->
  <PP_HEADER generated="Generated using 'atomic' code by A. Dal Corso  v.7.2" author="Lorenzo Paulatto" date="31May2024" comment="" element=" H" pseudo_type="PAW" relativistic="scalar" is_ultrasoft="true" is_paw="true" is_coulomb="false" has_so="false" has_wfc="true" has_gipaw="false" paw_as_gipaw="false" core_correction="false" functional=" SLA  PW   BEEX BEEC" z_valence="1.00000000000000" total_psenergy="-0.975609107105572" wfc_cutoff="45.9065966512932" rho_cutoff="219.486922214497" l_max="0" l_max_rho="0" l_local="1" mesh_size="929" number_of_wfc="1" number_of_proj="2"/>
  <PP_MESH mesh="929" dx="1.250000000000000E-002" xmin="-7.00000000000000" rmax="100.000000000000" zmesh="1.00000000000000">
    <PP_R>
   9.118819655545162E-04   9.233520286690222E-04   9.349663674165822E-04
   9.467267965612540E-04   9.586351536940199E-04   9.706932995199089E-04
   9.829031181487387E-04   9.952665173895113E-04   1.007785429048510E-03
   1.020461809231155E-03   1.033297638647637E-03   1.046294922922419E-03
   1.059455692907610E-03   1.072782005000297E-03   1.086275941463858E-03
   1.099939610753318E-03   1.113775147844803E-03   1.127784714569132E-03
   1.141970499949608E-03   1.156334720544058E-03   1.170879620791174E-03
   1.185607473361213E-03   1.200520579511101E-03   1.215621269444015E-03
   1.230911902673481E-03   1.246394868392050E-03   1.262072585844615E-03
   1.277947504706424E-03   1.294022105465848E-03   1.310298899811960E-03
   1.326780431026992E-03   1.343469274383727E-03   1.360368037547894E-03
   1.377479360985617E-03   1.394805918375999E-03   1.412350417028882E-03
   1.430115598307874E-03   1.448104238058696E-03   1.466319147042903E-03
   1.484763171377087E-03   1.503439192977572E-03   1.522350130010732E-03
   1.541498937348950E-03   1.560888607032332E-03   1.580522168736217E-03
   1.600402690244564E-03   1.620533277929307E-03   1.640917077235726E-03
   1.661557273173934E-03   1.682457090816541E-03   1.703619795802574E-03
   1.725048694847742E-03   1.746747136261120E-03   1.768718510468321E-03
   1.790966250541270E-03   1.813493832734615E-03   1.836304777028907E-03
   1.859402647680601E-03   1.882791053778977E-03   1.906473649810077E-03
   1.930454136227709E-03   1.954736260031667E-03   1.979323815353197E-03
   2.004220644047839E-03   2.029430636295734E-03   2.054957731209459E-03
   2.080805917449529E-03   2.106979233847634E-03   2.133481770037708E-03
   2.160317667094955E-03   2.187491118182885E-03   2.215006369208517E-03
   2.242867719485803E-03   2.271079522407407E-03   2.299646186124936E-03
   2.328572174237714E-03   2.357862006490233E-03   2.387520259478373E-03
   2.417551567364503E-03   2.447960622601583E-03   2.478752176666358E-03
   2.509931040801799E-03   2.541502086768858E-03   2.573470247607700E-03
   2.605840518408498E-03   2.638617957091922E-03   2.671807685199451E-03
   2.705414888693627E-03   2.739444818768368E-03   2.773902792669489E-03
   2.808794194525513E-03   2.844124476188968E-03   2.879899158088243E-03
   2.916123830090168E-03   2.952804152373447E-03   2.989945856313060E-03
   3.027554745375815E-03   3.065636696027143E-03   3.104197658649309E-03
   3.143243658471180E-03   3.182780796509667E-03   3.222815250523026E-03
   3.263353275976148E-03   3.304401207017982E-03   3.345965457471272E-03
   3.388052521834712E-03   3.430668976297734E-03   3.473821479768054E-03
   3.517516774912128E-03   3.561761689208730E-03   3.606563136015730E-03
   3.651928115650344E-03   3.697863716482932E-03   3.744377116044580E-03
   3.791475582148608E-03   3.839166474026164E-03   3.887457243476130E-03
   3.936355436029483E-03   3.985868692128290E-03   4.036004748319558E-03
   4.086771438464067E-03   4.138176694960437E-03   4.190228549984579E-03
   4.242935136744740E-03   4.296304690752340E-03   4.350345551108769E-03
   4.405066161808406E-03   4.460475073058002E-03   4.516580942612667E-03
   4.573392537128673E-03   4.630918733533246E-03   4.689168520411611E-03
   4.748150999411478E-03   4.807875386665190E-03   4.868351014229763E-03
   4.929587331545052E-03   4.991593906910217E-03   5.054380428978814E-03
   5.117956708272656E-03   5.182332678714725E-03   5.247518399181385E-03
   5.313524055074076E-03   5.380359959910820E-03   5.448036556937729E-03
   5.516564420760772E-03   5.585954258998100E-03   5.656216913953108E-03
   5.727363364308585E-03   5.799404726842147E-03   5.872352258163252E-03
   5.946217356472094E-03   6.021011563340559E-03   6.096746565515638E-03
   6.173434196745507E-03   6.251086439628561E-03   6.329715427485747E-03
   6.409333446256383E-03   6.489952936417887E-03   6.571586494929619E-03
   6.654246877201174E-03   6.737946999085467E-03   6.822699938896827E-03
   6.908518939454532E-03   6.995417410152017E-03   7.083408929052118E-03
   7.172507245008699E-03   7.262726279814891E-03   7.354080130378436E-03
   7.446583070924344E-03   7.540249555225269E-03   7.635094218859962E-03
   7.731131881500070E-03   7.828377549225773E-03   7.926846416870503E-03
   8.026553870395154E-03   8.127515489292211E-03   8.229747049020030E-03
   8.333264523467809E-03   8.438084087451538E-03   8.544222119241340E-03
   8.651695203120634E-03   8.760520131977428E-03   8.870713909928258E-03
   8.982293754975125E-03   9.095277101695816E-03   9.209681603968140E-03
   9.325525137728326E-03   9.442825803764212E-03   9.561601930543513E-03
   9.681872077077684E-03   9.803655035821828E-03   9.926969835611012E-03
   1.005183574463359E-02   1.017827227344188E-02   1.030629917800074E-02
   1.043593646277450E-02   1.056720438385265E-02   1.070012345211493E-02
   1.083471443643616E-02   1.097099836693148E-02   1.110899653824231E-02
   1.124873051286366E-02   1.139022212451338E-02   1.153349348154363E-02
   1.167856697039544E-02   1.182546525909662E-02   1.197421130080362E-02
   1.212482833738810E-02   1.227733990306845E-02   1.243176982808708E-02
   1.258814224243400E-02   1.274648157961707E-02   1.290681258047987E-02
   1.306916029706749E-02   1.323355009654093E-02   1.340000766514083E-02
   1.356855901220093E-02   1.373923047421214E-02   1.391204871893763E-02
   1.408704074957972E-02   1.426423390899926E-02   1.444365588398788E-02
   1.462533470959422E-02   1.480929877350441E-02   1.499557682047770E-02
   1.518419795683795E-02   1.537519165502143E-02   1.556858775818209E-02
   1.576441648485450E-02   1.596270843367561E-02   1.616349458816587E-02
   1.636680632157043E-02   1.657267540176125E-02   1.678113399620097E-02
   1.699221467696907E-02   1.720595042585138E-02   1.742237463949351E-02
   1.764152113461916E-02   1.786342415331405E-02   1.808811836837630E-02
   1.831563888873418E-02   1.854602126493188E-02   1.877930149468441E-02
   1.901551602850226E-02   1.925470177538693E-02   1.949689610859799E-02
   1.974213687149278E-02   1.999046238343943E-02   2.024191144580439E-02
   2.049652334801526E-02   2.075433787369974E-02   2.101539530690203E-02
   2.127973643837718E-02   2.154740257196477E-02   2.181843553104277E-02
   2.209287766506244E-02   2.237077185616560E-02   2.265216152588497E-02
   2.293709064192893E-02   2.322560372505158E-02   2.351774585600911E-02
   2.381356268260388E-02   2.411310042681688E-02   2.441640589203004E-02
   2.472352647033940E-02   2.503451014996015E-02   2.534940552272495E-02
   2.566826179167643E-02   2.599112877875535E-02   2.631805693258531E-02
   2.664909733635549E-02   2.698430171580249E-02   2.732372244729257E-02
   2.766741256600558E-02   2.801542577422182E-02   2.836781644971310E-02
   2.872463965423943E-02   2.908595114215248E-02   2.945180736910729E-02
   2.982226550088371E-02   3.019738342231850E-02   3.057721974635010E-02
   3.096183382317689E-02   3.135128574953089E-02   3.174563637806795E-02
   3.214494732687607E-02   3.254928098910343E-02   3.295870054270737E-02
   3.337326996032608E-02   3.379305401927456E-02   3.421811831166603E-02
   3.464852925466103E-02   3.508435410084504E-02   3.552566094873696E-02
   3.597251875342967E-02   3.642499733736423E-02   3.688316740124001E-02
   3.734710053506162E-02   3.781686922932508E-02   3.829254688634466E-02
   3.877420783172201E-02   3.926192732595982E-02   3.975578157622132E-02
   4.025584774823785E-02   4.076220397836623E-02   4.127492938579755E-02
   4.179410408491992E-02   4.231980919783632E-02   4.285212686704019E-02
   4.339114026825037E-02   4.393693362340742E-02   4.448959221383352E-02
   4.504920239355782E-02   4.561585160280941E-02   4.618962838168012E-02
   4.677062238395898E-02   4.735892439114093E-02   4.795462632661147E-02
   4.855782127000997E-02   4.916860347177358E-02   4.978706836786394E-02
   5.041331259467938E-02   5.104743400415442E-02   5.168953167904939E-02
   5.233970594843241E-02   5.299805840335583E-02   5.366469191273014E-02
   5.433971063939749E-02   5.502322005640723E-02   5.571532696349642E-02
   5.641613950377737E-02   5.712576718063529E-02   5.784432087483848E-02
   5.857191286186353E-02   5.930865682943875E-02   6.005466789530797E-02
   6.081006262521797E-02   6.157495905113224E-02   6.234947668967343E-02
   6.313373656079840E-02   6.392786120670760E-02   6.473197471099255E-02
   6.554620271802436E-02   6.637067245258560E-02   6.720551273974978E-02
   6.805085402501022E-02   6.890682839466258E-02   6.977356959644367E-02
   7.065121306042960E-02   7.153989592019726E-02   7.243975703425150E-02
   7.335093700772213E-02   7.427357821433390E-02   7.520782481865240E-02
   7.615382279861035E-02   7.711171996831674E-02   7.808166600115317E-02
   7.906381245316069E-02   8.005831278672054E-02   8.106532239453328E-02
   8.208499862389883E-02   8.311750080130256E-02   8.416299025731040E-02
   8.522163035177684E-02   8.629358649937054E-02   8.737902619542043E-02
   8.847811904208731E-02   8.959103677486471E-02   9.071795328941251E-02
   9.185904466872893E-02   9.301448921066353E-02   9.418446745577669E-02
   9.536916221554965E-02   9.656875860094882E-02   9.778344405135009E-02
   9.901340836382634E-02   1.002588437228037E-01   1.015199447300911E-01
   1.027969084352864E-01   1.040899343665667E-01   1.053992245618644E-01
   1.067249836004362E-01   1.080674186348293E-01   1.094267394232489E-01
   1.108031583623339E-01   1.121968905203438E-01   1.136081536707638E-01
   1.150371683263324E-01   1.164841577734970E-01   1.179493481073025E-01
   1.194329682667197E-01   1.209352500704167E-01   1.224564282529819E-01
   1.239967405016012E-01   1.255564274931973E-01   1.271357329320356E-01
   1.287349035878042E-01   1.303541893341717E-01   1.319938431878302E-01
   1.336541213480305E-01   1.353352832366127E-01   1.370375915385425E-01
   1.387613122429553E-01   1.405067146847181E-01   1.422740715865136E-01
   1.440636591014533E-01   1.458757568562274E-01   1.477106479947969E-01
   1.495686192226351E-01   1.514499608515266E-01   1.533549668449285E-01
   1.552839348639030E-01   1.572371663136277E-01   1.592149663904903E-01
   1.612176441297768E-01   1.632455124539584E-01   1.652988882215866E-01
   1.673780922768026E-01   1.694834494994701E-01   1.716152888559388E-01
   1.737739434504452E-01   1.759597505771616E-01   1.781730517728985E-01
   1.804141928704708E-01   1.826835240527347E-01   1.849813999073043E-01
   1.873081794819571E-01   1.896642263407353E-01   1.920499086207542E-01
   1.944655990897236E-01   1.969116752041941E-01   1.993885191685352E-01
   2.018965179946555E-01   2.044360635624741E-01   2.070075526811527E-01
   2.096113871510979E-01   2.122479738267432E-01   2.149177246801207E-01
   2.176210568652329E-01   2.203583927832339E-01   2.231301601484299E-01
   2.259367920551109E-01   2.287787270452225E-01   2.316564091768889E-01
   2.345702880937977E-01   2.375208190954582E-01   2.405084632083422E-01
   2.435336872579208E-01   2.465969639416065E-01   2.496987719026136E-01
   2.528395958047465E-01   2.560199264081301E-01   2.592402606458916E-01
   2.625011017018073E-01   2.658029590889266E-01   2.691463487291839E-01
   2.725317930340127E-01   2.759598209859732E-01   2.794309682214074E-01
   2.829457771141329E-01   2.865047968601901E-01   2.901085835636554E-01
   2.937577003235329E-01   2.974527173217407E-01   3.011942119122022E-01
   3.049827687110593E-01   3.088189796880200E-01   3.127034442588539E-01
   3.166367693790533E-01   3.206195696386707E-01   3.246524673583498E-01
   3.287360926865642E-01   3.328710836980797E-01   3.370580864936544E-01
   3.412977553009938E-01   3.455907525769746E-01   3.499377491111555E-01
   3.543394241305888E-01   3.587964654059517E-01   3.633095693590114E-01
   3.678794411714424E-01   3.725067948950131E-01   3.771923535631571E-01
   3.819368493039491E-01   3.867410234545013E-01   3.916056266767991E-01
   3.965314190749930E-01   4.015191703141668E-01   4.065696597405992E-01
   4.116836765035386E-01   4.168620196785086E-01   4.221054983921656E-01
   4.274149319487268E-01   4.327911499579874E-01   4.382349924649494E-01
   4.437473100810800E-01   4.493289641172218E-01   4.549808267181737E-01
   4.607037809989660E-01   4.664987211828485E-01   4.723665527410149E-01
   4.783081925340842E-01   4.843245689553626E-01   4.904166220759063E-01
   4.965853037914097E-01   5.028315779709411E-01   5.091564206075494E-01
   5.155608199707643E-01   5.220457767610162E-01   5.286123042659975E-01
   5.352614285189904E-01   5.419941884591873E-01   5.488116360940266E-01
   5.557148366635716E-01   5.627048688069559E-01   5.697828247309232E-01
   5.769498103804869E-01   5.842069456117360E-01   5.915553643668152E-01
   5.989962148511057E-01   6.065306597126336E-01   6.141598762237380E-01
   6.218850564650203E-01   6.297074075116103E-01   6.376281516217736E-01
   6.456485264278923E-01   6.537697851298475E-01   6.619931966908342E-01
   6.703200460356395E-01   6.787516342514146E-01   6.872892787909725E-01
   6.959343136786422E-01   7.046880897187137E-01   7.135519747065028E-01
   7.225273536420724E-01   7.316156289466421E-01   7.408182206817182E-01
   7.501365667709821E-01   7.595721232249688E-01   7.691263643685708E-01
   7.788007830714052E-01   7.885968909810769E-01   7.985162187593774E-01
   8.085603163214528E-01   8.187307530779822E-01   8.290291181804007E-01
   8.394570207692077E-01   8.500160902253985E-01   8.607079764250581E-01
   8.715343499971582E-01   8.824969025845958E-01   8.935973471085160E-01
   9.048374180359600E-01   9.162188716508780E-01   9.277434863285532E-01
   9.394130628134761E-01   9.512294245007143E-01   9.631944177208221E-01
   9.753099120283331E-01   9.875778004938818E-01   1.000000000000000E+00
   1.012578451540635E+00   1.025315120524429E+00   1.038211997081826E+00
   1.051271096376025E+00   1.064494458917860E+00   1.077884150884632E+00
   1.091442264442952E+00   1.105170918075648E+00   1.119072256912781E+00
   1.133148453066827E+00   1.147401705972073E+00   1.161834242728284E+00
   1.176448318448691E+00   1.191246216612359E+00   1.206230249420981E+00
   1.221402758160170E+00   1.236766113565285E+00   1.252322716191865E+00
   1.268074996790720E+00   1.284025416687742E+00   1.300176468168492E+00
   1.316530674867622E+00   1.333090592163203E+00   1.349858807576004E+00
   1.366837941173797E+00   1.384030645980752E+00   1.401439608391974E+00
   1.419067548593258E+00   1.436917220986125E+00   1.454991414618202E+00
   1.473292953619016E+00   1.491824697641271E+00   1.510589542307673E+00
   1.529590419663379E+00   1.548830298634134E+00   1.568312185490169E+00
   1.588039124315944E+00   1.608014197485784E+00   1.628240526145511E+00
   1.648721270700129E+00   1.669459631307644E+00   1.690458848379092E+00
   1.711722203084865E+00   1.733253017867396E+00   1.755054656960299E+00
   1.777130526914039E+00   1.799484077128209E+00   1.822118800390510E+00
   1.845038233422501E+00   1.868245957432223E+00   1.891745598673770E+00
   1.915540829013897E+00   1.939635366505755E+00   1.964032975969848E+00
   1.988737469582293E+00   2.013752707470478E+00   2.039082598316216E+00
   2.064731099966487E+00   2.090702220051857E+00   2.117000016612676E+00
   2.143628598733160E+00   2.170592127183443E+00   2.197894815069703E+00
   2.225540928492469E+00   2.253534787213209E+00   2.281880765329305E+00
   2.310583291957505E+00   2.339646851925992E+00   2.369075986475141E+00
   2.398875293967099E+00   2.429049430604289E+00   2.459603111156951E+00
   2.490541109699832E+00   2.521868260358149E+00   2.553589458062928E+00
   2.585709659315847E+00   2.618233882963702E+00   2.651167210982608E+00
   2.684514789272071E+00   2.718281828459046E+00   2.752473604712105E+00
   2.787095460565852E+00   2.822152805755702E+00   2.857651118063165E+00
   2.893595944171762E+00   2.929992900533703E+00   2.966847674247469E+00
   3.004166023946435E+00   3.041953780698665E+00   3.080216848918033E+00
   3.118961207286794E+00   3.158192909689769E+00   3.197918086160277E+00
   3.238142943837962E+00   3.278873767938675E+00   3.320116922736549E+00
   3.361878852558430E+00   3.404166082790821E+00   3.446985220899476E+00
   3.490342957461843E+00   3.534246067212471E+00   3.578701410101580E+00
   3.623715932366944E+00   3.669296667619246E+00   3.715450737941106E+00
   3.762185354999912E+00   3.809507821174662E+00   3.857425530696976E+00
   3.905945970806454E+00   3.955076722920579E+00   4.004825463819326E+00
   4.055199966844676E+00   4.106208103115215E+00   4.157857842756010E+00
   4.210157256143963E+00   4.263114515168819E+00   4.316737894510046E+00
   4.371035772929760E+00   4.426016634581936E+00   4.481689070338067E+00
   4.538061779129505E+00   4.595143569306691E+00   4.652943360015473E+00
   4.711470182590744E+00   4.770733181967605E+00   4.830741618110281E+00
   4.891504867459007E+00   4.953032424395118E+00   5.015333902724562E+00
   5.078419037180083E+00   5.142297684942288E+00   5.206979827179851E+00
   5.272475570609094E+00   5.338795149073179E+00   5.405948925141169E+00
   5.473947391727202E+00   5.542801173730026E+00   5.612521029693160E+00
   5.683117853485946E+00   5.754602676005733E+00   5.826986666901476E+00
   5.900281136319020E+00   5.974497536668327E+00   6.049647464412949E+00
   6.125742661881989E+00   6.202795019104868E+00   6.280816575669167E+00
   6.359819522601835E+00   6.439816204274062E+00   6.520819120330115E+00
   6.602840927640430E+00   6.685894442279273E+00   6.769992641527280E+00
   6.855148665899182E+00   6.941375821197038E+00   7.028687580589296E+00
   7.117097586715999E+00   7.206619653820471E+00   7.297267769907835E+00
   7.389056098930653E+00   7.481998983002083E+00   7.576110944636849E+00
   7.671406689020434E+00   7.767901106306778E+00   7.865609273944895E+00
   7.964546459034777E+00   8.064728120712875E+00   8.166169912567655E+00
   8.268887685085474E+00   8.372897488127268E+00   8.478215573436378E+00
   8.584858397177896E+00   8.692842622510009E+00   8.802185122187613E+00
   8.912902981198741E+00   9.025013499434127E+00   9.138534194390328E+00
   9.253482803906898E+00   9.369877288937936E+00   9.487735836358530E+00
   9.607076861806508E+00   9.727919012559887E+00   9.850281170450589E+00
   9.974182454814727E+00   1.009964222548006E+01   1.022668008579100E+01
   1.035531588567170E+01   1.048556972472758E+01   1.061746195538601E+01
   1.075101318607636E+01   1.088624428445014E+01   1.102317638064160E+01
   1.116183087056937E+01   1.130222941927959E+01   1.144439396433113E+01
   1.158834671922340E+01   1.173411017686721E+01   1.188170711309941E+01
   1.203116059024154E+01   1.218249396070348E+01   1.233573087063226E+01
   1.249089526360681E+01   1.264801138437923E+01   1.280710378266304E+01
   1.296819731696914E+01   1.313131715849002E+01   1.329648879503279E+01
   1.346373803500170E+01   1.363309101143076E+01   1.380457418606710E+01
   1.397821435350564E+01   1.415403864537581E+01   1.433207453458094E+01
   1.451234983959093E+01   1.469489272878895E+01   1.487973172487284E+01
   1.506689570931179E+01   1.525641392685917E+01   1.544831599012203E+01
   1.564263188418818E+01   1.583939197131143E+01   1.603862699565568E+01
   1.624036808809884E+01   1.644464677109706E+01   1.665149496361015E+01
   1.686094498608904E+01   1.707302956552586E+01   1.728778184056765E+01
   1.750523536669429E+01   1.772542412146165E+01   1.794838250981065E+01
   1.817414536944307E+01   1.840274797626505E+01   1.863422604989902E+01
   1.886861575926489E+01   1.910595372823166E+01   1.934627704133982E+01
   1.958962324959600E+01   1.983603037634033E+01   2.008553692318768E+01
   2.033818187604362E+01   2.059400471119604E+01   2.085304540148342E+01
   2.111534442254063E+01   2.138094275912335E+01   2.164988191151207E+01
   2.192220390199647E+01   2.219795128144165E+01   2.247716713593663E+01
   2.275989509352674E+01   2.304617933103059E+01   2.333606458094272E+01
   2.362959613842323E+01   2.392681986837515E+01   2.422778221261099E+01
   2.453253019710936E+01   2.484111143936285E+01   2.515357415581838E+01
   2.546996716941110E+01   2.579033991719307E+01   2.611474245805798E+01
   2.644322548056280E+01   2.677584031084814E+01   2.711263892065791E+01
   2.745367393546011E+01   2.779899864266968E+01   2.814866699997465E+01
   2.850273364376729E+01   2.886125389768103E+01   2.922428378123495E+01
   2.959188001858697E+01   2.996410004739703E+01   3.034100202780193E+01
   3.072264485150293E+01   3.110908815096768E+01   3.150039230874795E+01
   3.189661846691451E+01   3.229782853661069E+01   3.270408520772617E+01
   3.311545195869233E+01   3.353199306640095E+01   3.395377361624757E+01
   3.438085951230120E+01   3.481331748760205E+01   3.525121511458856E+01
   3.569462081565590E+01   3.614360387384695E+01   3.659823444367801E+01
   3.705858356210059E+01   3.752472315960102E+01   3.799672607143978E+01
   3.847466604903215E+01   3.895861777147199E+01   3.944865685720055E+01
   3.994485987582195E+01   4.044730436006741E+01   4.095606881790982E+01
   4.147123274483077E+01   4.199287663624201E+01   4.252108200006280E+01
   4.305593136945594E+01   4.359750831572353E+01   4.414589746136525E+01
   4.470118449330086E+01   4.526345617625879E+01   4.583280036633349E+01
   4.640930602471300E+01   4.699306323157931E+01   4.758416320018370E+01
   4.818269829109884E+01   4.878876202665044E+01   4.940244910553022E+01
   5.002385541759277E+01   5.065307805883867E+01   5.129021534658573E+01
   5.193536683483147E+01   5.258863332980847E+01   5.325011690573564E+01
   5.391992092076757E+01   5.459815003314429E+01   5.528491021754444E+01
   5.598030878164415E+01   5.668445438288382E+01   5.739745704544624E+01
   5.811942817744804E+01   5.885048058834741E+01   5.959072850657099E+01
   6.034028759736200E+01   6.109927498085337E+01   6.186780925036794E+01
   6.264601049094886E+01   6.343400029812334E+01   6.423190179690189E+01
   6.503983966101701E+01   6.585794013240375E+01   6.668633104092521E+01
   6.752514182434615E+01   6.837450354855815E+01   6.923454892805864E+01
   7.010541234668793E+01   7.098722987862693E+01   7.188013930965907E+01
   7.278428015869967E+01   7.369979369959584E+01   7.462682298320098E+01
   7.556551285972668E+01   7.651601000137589E+01   7.747846292526090E+01
   7.845302201660915E+01   7.943983955226140E+01   8.043906972446531E+01
   8.145086866496814E+01   8.247539446941303E+01   8.351280722204127E+01
   8.456326902070607E+01   8.562694400220066E+01   8.670399836790490E+01
   8.779460040975485E+01   8.889892053653833E+01   9.001713130052190E+01
   9.114940742441244E+01   9.229592582865789E+01   9.345686565909166E+01
   9.463240831492415E+01   9.582273747708696E+01   9.702803913693344E+01
   9.824850162530007E+01   9.948431564193386E+01
    </PP_R>
    <PP_RAB>
   1.139852456943145E-05   1.154190035836278E-05   1.168707959270728E-05
   1.183408495701567E-05   1.198293942117525E-05   1.213366624399886E-05
   1.228628897685923E-05   1.244083146736889E-05   1.259731786310638E-05
   1.275577261538943E-05   1.291622048309546E-05   1.307868653653023E-05
   1.324319616134513E-05   1.340977506250371E-05   1.357844926829822E-05
   1.374924513441648E-05   1.392218934806004E-05   1.409730893211415E-05
   1.427463124937009E-05   1.445418400680072E-05   1.463599525988968E-05
   1.482009341701516E-05   1.500650724388876E-05   1.519526586805018E-05
   1.538639878341851E-05   1.557993585490062E-05   1.577590732305768E-05
   1.597434380883031E-05   1.617527631832310E-05   1.637873624764950E-05
   1.658475538783739E-05   1.679336592979659E-05   1.700460046934867E-05
   1.721849201232022E-05   1.743507397969999E-05   1.765438021286102E-05
   1.787644497884843E-05   1.810130297573370E-05   1.832898933803629E-05
   1.855953964221359E-05   1.879298991221966E-05   1.902937662513415E-05
   1.926873671686188E-05   1.951110758790416E-05   1.975652710920271E-05
   2.000503362805705E-05   2.025666597411634E-05   2.051146346544658E-05
   2.076946591467418E-05   2.103071363520677E-05   2.129524744753218E-05
   2.156310868559678E-05   2.183433920326400E-05   2.210898138085401E-05
   2.238707813176587E-05   2.266867290918269E-05   2.295380971286134E-05
   2.324253309600752E-05   2.353488817223722E-05   2.383092062262596E-05
   2.413067670284637E-05   2.443420325039584E-05   2.474154769191496E-05
   2.505275805059799E-05   2.536788295369668E-05   2.568697164011824E-05
   2.601007396811912E-05   2.633724042309543E-05   2.666852212547135E-05
   2.700397083868693E-05   2.734363897728607E-05   2.768757961510646E-05
   2.803584649357254E-05   2.838849403009259E-05   2.874557732656170E-05
   2.910715217797142E-05   2.947327508112791E-05   2.984400324347967E-05
   3.021939459205630E-05   3.059950778251979E-05   3.098440220832948E-05
   3.137413801002249E-05   3.176877608461073E-05   3.216837809509625E-05
   3.257300648010623E-05   3.298272446364902E-05   3.339759606499313E-05
   3.381768610867034E-05   3.424306023460461E-05   3.467378490836861E-05
   3.510992743156891E-05   3.555155595236209E-05   3.599873947610304E-05
   3.645154787612710E-05   3.691005190466809E-05   3.737432320391326E-05
   3.784443431719770E-05   3.832045870033929E-05   3.880247073311636E-05
   3.929054573088976E-05   3.978475995637084E-05   4.028519063153783E-05
   4.079191594970186E-05   4.130501508772478E-05   4.182456821839090E-05
   4.235065652293390E-05   4.288336220372168E-05   4.342276849710067E-05
   4.396895968640161E-05   4.452202111510912E-05   4.508203920019664E-05
   4.564910144562930E-05   4.622329645603665E-05   4.680471395055726E-05
   4.739344477685760E-05   4.798958092532705E-05   4.859321554345163E-05
   4.920444295036854E-05   4.982335865160364E-05   5.045005935399448E-05
   5.108464298080083E-05   5.172720868700546E-05   5.237785687480724E-05
   5.303668920930926E-05   5.370380863440425E-05   5.437931938885961E-05
   5.506332702260508E-05   5.575593841322503E-05   5.645726178265834E-05
   5.716740671410841E-05   5.788648416916558E-05   5.861460650514514E-05
   5.935188749264347E-05   6.009844233331488E-05   6.085438767787204E-05
   6.161984164431316E-05   6.239492383637772E-05   6.317975536223518E-05
   6.397445885340820E-05   6.477915848393406E-05   6.559397998976731E-05
   6.641905068842595E-05   6.725449949888526E-05   6.810045696172162E-05
   6.895705525950965E-05   6.982442823747624E-05   7.070271142441385E-05
   7.159204205385732E-05   7.249255908552684E-05   7.340440322704066E-05
   7.432771695590118E-05   7.526264454175699E-05   7.620933206894548E-05
   7.716792745931885E-05   7.813858049535703E-05   7.912144284357185E-05
   8.011666807820479E-05   8.112441170522359E-05   8.214483118662024E-05
   8.317808596501467E-05   8.422433748856834E-05   8.528374923621035E-05
   8.635648674318166E-05   8.744271762690021E-05   8.854261161315149E-05
   8.965634056260874E-05   9.078407849768615E-05   9.192600162973046E-05
   9.308228838655430E-05   9.425311944031587E-05   9.543867773574952E-05
   9.663914851875088E-05   9.785471936532217E-05   9.908558021088130E-05
   1.003319233799394E-04   1.015939436161526E-04   1.028718381127504E-04
   1.041658065433476E-04   1.054760510931442E-04   1.068027764905168E-04
   1.081461900390079E-04   1.095065016497179E-04   1.108839238741032E-04
   1.122786719371891E-04   1.136909637711977E-04   1.151210200496018E-04
   1.165690642216041E-04   1.180353225470527E-04   1.195200241317939E-04
   1.210234009634711E-04   1.225456879477729E-04   1.240871229451377E-04
   1.256479468079198E-04   1.272284034180235E-04   1.288287397250093E-04
   1.304492057846813E-04   1.320900547981582E-04   1.337515431514366E-04
   1.354339304554520E-04   1.371374795866435E-04   1.388624567280288E-04
   1.406091314107958E-04   1.423777765564172E-04   1.441686685192954E-04
   1.459820871299430E-04   1.478183157387077E-04   1.496776412600453E-04
   1.515603542173512E-04   1.534667487883556E-04   1.553971228510885E-04
   1.573517780304250E-04   1.593310197452134E-04   1.613351572559984E-04
   1.633645037133436E-04   1.654193762067616E-04   1.675000958142604E-04
   1.696069876525117E-04   1.717403809276518E-04   1.739006089867204E-04