<UPF version="2.0.1">
  <PP_INFO>
    Generated using "atomic" code by A. Dal Corso  v.7.2
    Author: ADC
    Generation date: 31May2024
    Pseudopotential type: PAW
    Element: Ho
    Functional:  SLA  PW   BEEX BEEC
    Suggested minimum cutoff for wavefunctions: 131. Ry
    Suggested minimum cutoff for charge density:1583. Ry
    The Pseudo was generated with a Scalar-Relativistic Calculation
    Local Potential by smoothing AE potential with Bessel fncs, cutoff radius:   1.7000
    Valence configuration: 
    nl pn  l   occ       Rcut    Rcut US       E pseu
    5S  1  0  2.00      1.300      1.500    -3.728428
    6S  2  0  2.00      1.300      1.500    -0.290404
    5P  2  1  6.00      1.300      1.800    -1.925079
    4D  3  2 10.00      1.000      1.100   -11.762135
    5D  4  2  0.00      1.000      1.100    -0.091651
    4F  4  3 11.00      1.100      1.300    -0.268263
    Generation configuration:
    5S  1  0  2.00      1.300      1.500    -3.728310
    6S  2  0  2.00      1.300      1.500    -0.290366
    5P  2  1  6.00      1.300      1.800    -1.924971
    6P  3  1  0.00      1.300      1.800     0.300000
    4D  3  2 10.00      1.000      1.100   -11.762004
    5D  4  2  0.00      1.000      1.100    -0.091603
    4F  4  3 11.00      1.100      1.300    -0.268133
    4F  4  3  0.00      1.100      1.300     1.000000
    Pseudization used: troullier-martins
    <PP_INPUTFILE>
@input
title='Ho',
zed=67.0,
rel=1,
config='[Xe] 4f11.0 5d0.0 6s2. 6p0.',
iswitch=3,
dft='SLA-PW-BEEX-BEEC'
/
@inputp
lpaw=.true.,
pseudotype=3,
file_pseudopw='Ho.beef-spdfn-kjpaw_psl.1.0.0.UPF',
author='ADC',
lloc=-1,
rcloc=1.7,
which_augfun='PSQ',
rmatch_augfun_nc=.true.,
nlcc=.true.,
new_core_ps=.true.,
rcore=1.2,
tm=.true.
/
8
5S  1  0  2.00  0.00  1.30  1.50  0.0
6S  2  0  2.00  0.00  1.30  1.50  0.0
5P  2  1  6.00  0.00  1.30  1.80  0.0
6P  3  1  0.00  0.30  1.30  1.80  0.0
4D  3  2 10.00  0.00  1.00  1.10  0.0
5D  4  2  0.00  0.00  1.00  1.10  0.0
4F  4  3 11.00  0.00  1.10  1.30  0.0
4F  4  3  0.00  1.00  1.10  1.30  0.0
    </PP_INPUTFILE>
  </PP_INFO>
    <!-- END OF HUMAN READABLE SECTION -->
  <PP_HEADER generated="Generated using 'atomic' code by A. Dal Corso  v.7.2" author="ADC" date="31May2024" comment="" element="Ho" pseudo_type="PAW" relativistic="scalar" is_ultrasoft="true" is_paw="true" is_coulomb="false" has_so="false" has_wfc="true" has_gipaw="false" paw_as_gipaw="false" core_correction="true" functional=" SLA  PW   BEEX BEEC" z_valence="31.0000000000000" total_psenergy="-1481.09489195861" wfc_cutoff="131.175026711220" rho_cutoff="1583.35409066264" l_max="3" l_max_rho="6" l_local="-1" mesh_size="1265" number_of_wfc="6" number_of_proj="8"/>
  <PP_MESH mesh="1265" dx="1.250000000000000E-002" xmin="-7.00000000000000" rmax="100.000000000000" zmesh="67.0000000000000">
    <PP_R>
   1.361017859036591E-05   1.378137356222421E-05   1.395472190174003E-05
   1.413025069494409E-05   1.430798736856746E-05   1.448795969432700E-05
   1.467019579326476E-05   1.485472414014196E-05   1.504157356788822E-05
   1.523077327210678E-05   1.542235281563637E-05   1.561634213317042E-05
   1.581277153593448E-05   1.601167171642234E-05   1.621307375319191E-05
   1.641700911572117E-05   1.662350966932542E-05   1.683260768013630E-05
   1.704433582014340E-05   1.725872717229937E-05   1.747581523568917E-05
   1.769563393076437E-05   1.791821760464330E-05   1.814360103647783E-05
   1.837181944288778E-05   1.860290848346342E-05   1.883690426633753E-05
   1.907384335382723E-05   1.931376276814698E-05   1.955669999719343E-05
   1.980269300040286E-05   2.005178021468249E-05   2.030400056041633E-05
   2.055939344754652E-05   2.081799878173133E-05   2.107985697058032E-05
   2.134500892996828E-05   2.161349609042829E-05   2.188536040362542E-05
   2.216064434891174E-05   2.243939093996377E-05   2.272164373150346E-05
   2.300744682610373E-05   2.329684488107959E-05   2.358988311546592E-05
   2.388660731708305E-05   2.418706384969115E-05   2.449129966023472E-05
   2.479936228617812E-05   2.511129986293345E-05   2.542716113138170E-05
   2.574699544548869E-05   2.607085278001671E-05   2.639878373833314E-05
   2.673083956031746E-05   2.706707213036739E-05   2.740753398550607E-05
   2.775227832359106E-05   2.810135901162653E-05   2.845483059418025E-05
   2.881274830190611E-05   2.917516806017414E-05   2.954214649780891E-05
   2.991374095593790E-05   3.029000949695125E-05   3.067101091357401E-05
   3.105680473805268E-05   3.144745125145723E-05   3.184301149310012E-05
   3.224354727007395E-05   3.264912116690873E-05   3.305979655535100E-05
   3.347563760426573E-05   3.389670928966279E-05   3.432307740484979E-05
   3.475480857071215E-05   3.519197024612288E-05   3.563463073848318E-05
   3.608285921439557E-05   3.653672571047139E-05   3.699630114427401E-05
   3.746165732539997E-05   3.793286696669938E-05   3.841000369563732E-05
   3.889314206579849E-05   3.938235756853614E-05   3.987772664476792E-05
   4.037932669691980E-05   4.088723610102042E-05   4.140153421894759E-05
   4.192230141082855E-05   4.244961904759653E-05   4.298356952370512E-05
   4.352423627000250E-05   4.407170376676786E-05   4.462605755691135E-05
   4.518738425934053E-05   4.575577158249467E-05   4.633130833804938E-05
   4.691408445479374E-05   4.750419099268160E-05   4.810172015706010E-05
   4.870676531307684E-05   4.931942100026839E-05   4.993978294733242E-05
   5.056794808708524E-05   5.120401457160798E-05   5.184808178758289E-05
   5.250025037182281E-05   5.316062222699597E-05   5.382930053754822E-05
   5.450638978582602E-05   5.519199576840197E-05   5.588622561260568E-05
   5.658918779326280E-05   5.730099214964423E-05   5.802174990262881E-05
   5.875157367208184E-05   5.949057749445209E-05   6.023887684059043E-05
   6.099658863379204E-05   6.176383126806622E-05   6.254072462663552E-05
   6.332739010066776E-05   6.412395060824388E-05   6.493053061356372E-05
   6.574725614639413E-05   6.657425482176122E-05   6.741165585989055E-05
   6.825959010639811E-05   6.911819005273501E-05   6.998758985688971E-05
   7.086792536435041E-05   7.175933412933119E-05   7.266195543626513E-05
   7.357593032156794E-05   7.450140159567488E-05   7.543851386535544E-05
   7.638741355630830E-05   7.734824893604066E-05   7.832117013703559E-05
   7.930632918021008E-05   8.030387999866897E-05   8.131397846175716E-05
   8.233678239941449E-05   8.337245162683730E-05   8.442114796944937E-05
   8.548303528818784E-05   8.655827950510666E-05   8.764704862930227E-05
   8.874951278316558E-05   8.986584422896356E-05   9.099621739575578E-05
   9.214080890664937E-05   9.329979760639643E-05   9.447336458933950E-05
   9.566169322770722E-05   9.686496920026697E-05   9.808338052133760E-05
   9.931711757016678E-05   1.005663731206786E-04   1.018313423715944E-04
   1.031122229769333E-04   1.044092150768958E-04   1.057225213291361E-04
   1.070523469404283E-04   1.083988996987297E-04   1.097623900056483E-04
   1.111430309093186E-04   1.125410381376906E-04   1.139566301322382E-04
   1.153900280820906E-04   1.168414559585936E-04   1.183111405503060E-04
   1.197993114984351E-04   1.213062013327196E-04   1.228320455077616E-04
   1.243770824398181E-04   1.259415535440528E-04   1.275257032722588E-04
   1.291297791510542E-04   1.307540318205586E-04   1.323987150735561E-04
   1.340640858951511E-04   1.357504045029226E-04   1.374579343875842E-04
   1.391869423541541E-04   1.409376985636449E-04   1.427104765752763E-04
   1.445055533892192E-04   1.463232094898780E-04   1.481637288897166E-04
   1.500273991736356E-04   1.519145115439086E-04   1.538253608656827E-04
   1.557602457130523E-04   1.577194684157113E-04   1.597033351061930E-04
   1.617121557677039E-04   1.637462442825594E-04   1.658059184812285E-04
   1.678915001919950E-04   1.700033152912444E-04   1.721416937543826E-04
   1.743069697073947E-04   1.764994814790540E-04   1.787195716537854E-04
   1.809675871251955E-04   1.832438791502753E-04   1.855488034042848E-04
   1.878827200363283E-04   1.902459937256279E-04   1.926389937385056E-04
   1.950620939860820E-04   1.975156730827004E-04   2.000001144050870E-04
   2.025158061522527E-04   2.050631414061514E-04   2.076425181930990E-04
   2.102543395459660E-04   2.128990135671531E-04   2.155769534923564E-04
   2.182885777551376E-04   2.210343100523047E-04   2.238145794101150E-04
   2.266298202513126E-04   2.294804724630065E-04   2.323669814654043E-04
   2.352897982814104E-04   2.382493796070986E-04   2.412461878830728E-04
   2.442806913667228E-04   2.473533642053919E-04   2.504646865104623E-04
   2.536151444323741E-04   2.568052302365878E-04   2.600354423805002E-04
   2.633062855913308E-04   2.666182709449858E-04   2.699719159459149E-04
   2.733677446079728E-04   2.768062875362968E-04   2.802880820102151E-04
   2.838136720671978E-04   2.873836085878646E-04   2.909984493820596E-04
   2.946587592760116E-04   2.983651102005885E-04   3.021180812806626E-04
   3.059182589256009E-04   3.097662369208917E-04   3.136626165209258E-04
   3.176080065429429E-04   3.216030234621608E-04   3.256482915081011E-04
   3.297444427621260E-04   3.338921172562030E-04   3.380919630729100E-04
   3.423446364467005E-04   3.466508018664414E-04   3.510111321792404E-04
   3.554263086955803E-04   3.598970212957743E-04   3.644239685377617E-04
   3.690078577662597E-04   3.736494052232858E-04   3.783493361600738E-04
   3.831083849503945E-04   3.879272952053037E-04   3.928068198893331E-04
   3.977477214381416E-04   4.027507718776490E-04   4.078167529446652E-04
   4.129464562090385E-04   4.181406831973406E-04   4.234002455181060E-04
   4.287259649886483E-04   4.341186737634698E-04   4.395792144642879E-04
   4.451084403116971E-04   4.507072152584851E-04   4.563764141246283E-04
   4.621169227339835E-04   4.679296380526998E-04   4.738154683293725E-04
   4.797753332369563E-04   4.858101640164691E-04   4.919209036224980E-04
   4.981085068705385E-04   5.043739405861874E-04   5.107181837562094E-04
   5.171422276815078E-04   5.236470761320155E-04   5.302337455035368E-04
   5.369032649765622E-04   5.436566766770781E-04   5.504950358394032E-04
   5.574194109710690E-04   5.644308840197774E-04   5.715305505424576E-04
   5.787195198764479E-04   5.859989153128331E-04   5.933698742719600E-04
   6.008335484811619E-04   6.083911041547198E-04   6.160437221760829E-04
   6.237925982823868E-04   6.316389432512883E-04   6.395839830901520E-04
   6.476289592276175E-04   6.557751287075734E-04   6.640237643855749E-04
   6.723761551277287E-04   6.808336060120807E-04   6.893974385325392E-04
   6.980689908053579E-04   7.068496177782228E-04   7.157406914419623E-04
   7.247436010449250E-04   7.338597533100535E-04   7.430905726546858E-04
   7.524375014131250E-04   7.619020000620062E-04   7.714855474484983E-04
   7.811896410213793E-04   7.910157970650124E-04   8.009655509362707E-04
   8.110404573044402E-04   8.212420903941377E-04   8.315720442312899E-04
   8.420319328921996E-04   8.526233907557506E-04   8.633480727587834E-04
   8.742076546546795E-04   8.852038332752052E-04   8.963383267956414E-04
   9.076128750032534E-04   9.190292395691379E-04   9.305892043234840E-04
   9.422945755343046E-04   9.541471821896656E-04   9.661488762834709E-04
   9.783015331048413E-04   9.906070515311284E-04   1.003067354324624E-03
   1.015684388432988E-03   1.028460125293471E-03   1.041396561140950E-03
   1.054495717319845E-03   1.067759640599959E-03   1.081190403496291E-03
   1.094790104592868E-03   1.108560868870655E-03   1.122504848039588E-03
   1.136624220874781E-03   1.150921193556966E-03   1.165398000017211E-03
   1.180056902285980E-03   1.194900190846575E-03   1.209930184993034E-03
   1.225149233192520E-03   1.240559713452277E-03   1.256164033691200E-03
   1.271964632116072E-03   1.287963977602545E-03   1.304164570080902E-03
   1.320568940926676E-03   1.337179653356190E-03   1.353999302827052E-03
   1.371030517443715E-03   1.388275958368113E-03   1.405738320235473E-03
   1.423420331575368E-03   1.441324755238042E-03   1.459454388826121E-03
   1.477812065131736E-03   1.496400652579160E-03   1.515223055673001E-03
   1.534282215452036E-03   1.553581109948757E-03   1.573122754654692E-03
   1.592910202991585E-03   1.612946546788497E-03   1.633234916764909E-03
   1.653778483019909E-03   1.674580455527519E-03   1.695644084638265E-03
   1.716972661587051E-03   1.738569519007417E-03   1.760438031452277E-03
   1.782581615921189E-03   1.805003732394279E-03   1.827707884372865E-03
   1.850697619426884E-03   1.873976529749213E-03   1.897548252716950E-03
   1.921416471459765E-03   1.945584915435398E-03   1.970057361012391E-03
   1.994837632060156E-03   2.019929600546459E-03   2.045337187142425E-03
   2.071064361835153E-03   2.097115144548032E-03   2.123493605768860E-03
   2.150203867185870E-03   2.177250102331752E-03   2.204636537235774E-03
   2.232367451084106E-03   2.260447176888457E-03   2.288880102163112E-03
   2.317670669610493E-03   2.346823377815338E-03   2.376342781947617E-03
   2.406233494474280E-03   2.436500185879977E-03   2.467147585396814E-03
   2.498180481743322E-03   2.529603723872689E-03   2.561422221730429E-03
   2.593640947021570E-03   2.626264933987486E-03   2.659299280192515E-03
   2.692749147320460E-03   2.726619761981115E-03   2.760916416526931E-03
   2.795644469879957E-03   2.830809348369184E-03   2.866416546578420E-03
   2.902471628204830E-03   2.938980226928270E-03   2.975948047291570E-03
   3.013380865591872E-03   3.051284530783195E-03   3.089664965390338E-03
   3.128528166434297E-03   3.167880206369301E-03   3.207727234031652E-03
   3.248075475600492E-03   3.288931235570655E-03   3.330300897737759E-03
   3.372190926195686E-03   3.414607866346605E-03   3.457558345923714E-03
   3.501049076026832E-03   3.545086852171018E-03   3.589678555348392E-03
   3.634831153103295E-03   3.680551700620993E-03   3.726847341830054E-03
   3.773725310518605E-03   3.821192931464629E-03   3.869257621580472E-03
   3.917926891071752E-03   3.967208344610846E-03   4.017109682525133E-03
   4.067638702000190E-03   4.118803298298107E-03   4.170611465991155E-03
   4.223071300210940E-03   4.276190997913286E-03   4.329978859159036E-03
   4.384443288410939E-03   4.439592795846875E-03   4.495435998689585E-03
   4.551981622553125E-03   4.609238502806268E-03   4.667215585953043E-03
   4.725921931030647E-03   4.785366711024936E-03   4.845559214303729E-03
   4.906508846068123E-03   4.968225129822084E-03   5.030717708860514E-03
   5.093996347776027E-03   5.158070933984695E-03   5.222951479270978E-03
   5.288648121352072E-03   5.355171125461966E-03   5.422530885955393E-03
   5.490737927931977E-03   5.559802908880793E-03   5.629736620345628E-03
   5.700549989611180E-03   5.772254081410468E-03   5.844860099653718E-03
   5.918379389179000E-03   5.992823437524877E-03   6.068203876725362E-03
   6.144532485127442E-03   6.221821189231471E-03   6.300082065554710E-03
   6.379327342518310E-03   6.459569402358021E-03   6.540820783058946E-03
   6.623094180314627E-03   6.706402449510773E-03   6.790758607733936E-03
   6.876175835805462E-03   6.962667480341023E-03   7.050247055836042E-03
   7.138928246777376E-03   7.228724909781532E-03   7.319651075759796E-03
   7.411720952110593E-03   7.504948924939420E-03   7.599349561306708E-03
   7.694937611503944E-03   7.791728011358450E-03   7.889735884567126E-03
   7.988976545059558E-03   8.089465499390856E-03   8.191218449164575E-03
   8.294251293486142E-03   8.398580131447102E-03   8.504221264640646E-03
   8.611191199708759E-03   8.719506650921433E-03   8.829184542788287E-03
   8.940242012703069E-03   9.052696413621398E-03   9.166565316772209E-03
   9.281866514403289E-03   9.398618022561348E-03   9.516838083907068E-03
   9.636545170565556E-03   9.757757987012649E-03   9.880495472997526E-03
   1.000477680650208E-02   1.013062140673753E-02   1.025804893717869E-02
   1.038707930863645E-02   1.051773268236886E-02   1.065002947323138E-02
   1.078399035286675E-02   1.091963625293496E-02   1.105698836838385E-02
   1.119606816076093E-02   1.133689736156670E-02   1.147949797565031E-02
   1.162389228464784E-02   1.177010285046383E-02   1.191815251879668E-02
   1.206806442270825E-02   1.221986198623854E-02   1.237356892806568E-02
   1.252920926521205E-02   1.268680731679699E-02   1.284638770783669E-02
   1.300797537309191E-02   1.317159556096412E-02   1.333727383744054E-02
   1.350503609008896E-02   1.367490853210266E-02   1.384691770639632E-02
   1.402109048975337E-02   1.419745409702559E-02   1.437603608538541E-02
   1.455686435863184E-02   1.473996717155047E-02   1.492537313432836E-02
   1.511311121702440E-02   1.530321075409596E-02   1.549570144898247E-02
   1.569061337874663E-02   1.588797699877403E-02   1.608782314753182E-02
   1.629018305138735E-02   1.649508832948729E-02   1.670257099869822E-02
   1.691266347860935E-02   1.712539859659810E-02   1.734080959295945E-02
   1.755893012609986E-02   1.777979427779640E-02   1.800343655852210E-02
   1.822989191283836E-02   1.845919572485500E-02   1.869138382375918E-02
   1.892649248941373E-02   1.916455845802600E-02   1.940561892788793E-02
   1.964971156518839E-02   1.989687450989856E-02   2.014714638173140E-02
   2.040056628617607E-02   2.065717382060824E-02   2.091700908047722E-02
   2.118011266557101E-02   2.144652568636007E-02   2.171628977042092E-02
   2.198944706894054E-02   2.226604026330255E-02   2.254611257175632E-02
   2.282970775616984E-02   2.311687012886767E-02   2.340764455955477E-02
   2.370207648232752E-02   2.400021190277289E-02   2.430209740515687E-02
   2.460778015970342E-02   2.491730792996483E-02   2.523072908028496E-02
   2.554809258335619E-02   2.586944802787158E-02   2.619484562627312E-02
   2.652433622259760E-02   2.685797130042104E-02   2.719580299090313E-02
   2.753788408093285E-02   2.788426802137647E-02   2.823500893542941E-02
   2.859016162707309E-02   2.894978158963813E-02   2.931392501447534E-02
   2.968264879973571E-02   3.005601055926086E-02   3.043406863158532E-02
   3.081688208905205E-02   3.120451074704263E-02   3.159701517332351E-02
   3.199445669750985E-02   3.239689742064841E-02   3.280440022492093E-02
   3.321702878346968E-02   3.363484757034641E-02   3.405792187058664E-02
   3.448631779041052E-02   3.492010226755212E-02   3.535934308171852E-02
   3.580410886518058E-02   3.625446911349686E-02   3.671049419637240E-02
   3.717225536865421E-02   3.763982478146492E-02   3.811327549347654E-02
   3.859268148232608E-02   3.907811765617466E-02   3.956965986541205E-02
   4.006738491450853E-02   4.057137057401562E-02   4.108169559271799E-02
   4.159843970993808E-02   4.212168366799555E-02   4.265150922482336E-02
   4.318799916674271E-02   4.373123732139855E-02   4.428130857085774E-02
   4.483829886487216E-02   4.540229523430844E-02   4.597338580474676E-02
   4.655165981025065E-02   4.713720760730999E-02   4.773012068895936E-02
   4.833049169907407E-02   4.893841444684590E-02   4.955398392144103E-02
   5.017729630684224E-02   5.080844899687793E-02   5.144754061043994E-02
   5.209467100689318E-02   5.274994130167868E-02   5.341345388211314E-02
   5.408531242338722E-02   5.476562190476487E-02   5.545448862598665E-02
   5.615202022387928E-02   5.685832568917407E-02   5.757351538353696E-02
   5.829770105681274E-02   5.903099586448626E-02   5.977351438536308E-02
   6.052537263947278E-02   6.128668810619723E-02   6.205757974262701E-02
   6.283816800214870E-02   6.362857485326597E-02   6.442892379865740E-02
   6.523933989447403E-02   6.605994976987964E-02   6.689088164683682E-02
   6.773226536014186E-02   6.858423237771180E-02   6.944691582112646E-02
   7.032045048642901E-02   7.120497286518813E-02   7.210062116582509E-02
   7.300753533520907E-02   7.392585708052414E-02   7.485572989141137E-02
   7.579729906238930E-02   7.675071171555653E-02   7.771611682357987E-02
   7.869366523297155E-02   7.968350968765939E-02   8.068580485285327E-02
   8.170070733921196E-02   8.272837572731381E-02   8.376897059243522E-02
   8.482265452964098E-02   8.588959217919005E-02   8.696995025226084E-02
   8.806389755700030E-02   8.917160502490040E-02   9.029324573750670E-02
   9.142899495346252E-02   9.257903013589355E-02   9.374353098013682E-02
   9.492267944181844E-02   9.611665976528451E-02   9.732565851238978E-02
   9.854986459164820E-02   9.978946928775034E-02   1.010446662914519E-01
   1.023156517298385E-01   1.036026241969707E-01   1.049057847849149E-01
   1.062253371151642E-01   1.075614873704548E-01   1.089144443269826E-01
   1.102844193870247E-01   1.116716266119714E-01   1.130762827557739E-01
   1.144986072988124E-01   1.159388224821907E-01   1.173971533424611E-01
   1.188738277467877E-01   1.203690764285504E-01   1.218831330233978E-01
   1.234162341057534E-01   1.249686192257801E-01   1.265405309468116E-01
   1.281322148832522E-01   1.297439197389554E-01   1.313758973460838E-01
   1.330284027044588E-01   1.347016940214049E-01   1.363960327520944E-01
   1.381116836404015E-01   1.398489147602677E-01   1.416079975575900E-01
   1.433892068926345E-01   1.451928210829834E-01   1.470191219470237E-01
   1.488683948479810E-01   1.507409287385083E-01   1.526370162058359E-01
   1.545569535174880E-01   1.565010406675758E-01   1.584695814236718E-01
   1.604628833742740E-01   1.624812579768678E-01   1.645250206065911E-01
   1.665944906055130E-01   1.686899913325312E-01   1.708118502138974E-01
   1.729603987943790E-01   1.751359727890629E-01   1.773389121358120E-01
   1.795695610483812E-01   1.818282680702012E-01   1.841153861288397E-01
   1.864312725911465E-01   1.887762893190930E-01   1.911508027263140E-01
   1.935551838353603E-01   1.959898083356720E-01   1.984550566422804E-01
   2.009513139552492E-01   2.034789703198621E-01   2.060384206875687E-01
   2.086300649776961E-01   2.112543081399374E-01   2.139115602176259E-01
   2.166022364118048E-01   2.193267571461037E-01   2.220855481324305E-01
   2.248790404374894E-01   2.277076705501368E-01   2.305718804495825E-01
   2.334721176744504E-01   2.364088353927079E-01   2.393824924724728E-01
   2.423935535537141E-01   2.454424891208517E-01   2.485297755762709E-01
   2.516558953147618E-01   2.548213367988935E-01   2.580265946353381E-01
   2.612721696521536E-01   2.645585689770396E-01   2.678863061165769E-01
   2.712559010364637E-01   2.746678802427620E-01   2.781227768641644E-01
   2.816211307352969E-01   2.851634884810695E-01   2.887504036020868E-01
   2.923824365611344E-01   2.960601548707512E-01   2.997841331819056E-01
   3.035549533737854E-01   3.073732046447170E-01   3.112394836042301E-01
   3.151543943662780E-01   3.191185486436321E-01   3.231325658434637E-01
   3.271970731641264E-01   3.313127056931589E-01   3.354801065065168E-01
   3.396999267690557E-01   3.439728258362775E-01   3.482994713573541E-01
   3.526805393794512E-01   3.571167144533605E-01   3.616086897404625E-01
   3.661571671210352E-01   3.707628573039231E-01   3.754264799375877E-01
   3.801487637225537E-01   3.849304465252698E-01   3.897722754934027E-01
   3.946750071725791E-01   3.996394076245990E-01   4.046662525471330E-01
   4.097563273949271E-01   4.149104275025325E-01   4.201293582085769E-01
   4.254139349816014E-01   4.307649835474781E-01   4.361833400184321E-01
   4.416698510236861E-01   4.472253738417467E-01   4.528507765343572E-01
   4.585469380821334E-01   4.643147485219056E-01   4.701551090857903E-01
   4.760689323420077E-01   4.820571423374730E-01   4.881206747421817E-01
   4.942604769954079E-01   5.004775084537455E-01   5.067727405410084E-01
   5.131471569000179E-01   5.196017535462992E-01   5.261375390237099E-01
   5.327555345620283E-01   5.394567742365216E-01   5.462423051295225E-01
   5.531131874940387E-01   5.600704949194182E-01   5.671153144991012E-01
   5.742487470004799E-01   5.814719070368953E-01   5.887859232417993E-01
   5.961919384451038E-01   6.036911098517524E-01   6.112846092225347E-01
   6.189736230571757E-01   6.267593527797315E-01   6.346430149263105E-01
   6.426258413351633E-01   6.507090793391571E-01   6.588939919606754E-01
   6.671818581089680E-01   6.755739727799819E-01   6.840716472587088E-01
   6.926762093240746E-01   7.013890034564075E-01   7.102113910475180E-01
   7.191447506134155E-01   7.281904780097080E-01   7.373499866497047E-01
   7.466247077252652E-01   7.560160904304278E-01   7.655256021878466E-01
   7.751547288780817E-01   7.849049750717683E-01   7.947778642647111E-01
   8.047749391159338E-01   8.148977616887206E-01   8.251479136946931E-01
   8.355269967409575E-01   8.460366325803556E-01   8.566784633648692E-01
   8.674541519022095E-01   8.783653819156330E-01   8.894138583070297E-01
   9.006013074233135E-01   9.119294773261698E-01   9.234001380651932E-01
   9.350150819544606E-01   9.467761238525872E-01   9.586851014462969E-01
   9.707438755375674E-01   9.829543303343844E-01   9.953183737451524E-01
   1.007837937676808E+00   1.020514978336689E+00   1.033351476538189E+00
   1.046349438010268E+00   1.059510893710850E+00   1.072837900144165E+00
   1.086332539682085E+00   1.099996920889490E+00   1.113833178853746E+00
   1.127843475518309E+00   1.142030000020536E+00   1.156394969033745E+00
   1.170940627113569E+00   1.185669247048678E+00   1.200583130215900E+00
   1.215684606939823E+00   1.230976036856911E+00   1.246459809284198E+00
   1.262138343592628E+00   1.278014089585084E+00   1.294089527879178E+00
   1.310367170294849E+00   1.326849560246841E+00   1.343539273142118E+00
   1.360438916782275E+00   1.377551131771013E+00   1.394878591926741E+00
   1.412424004700360E+00   1.430190111598313E+00   1.448179688610947E+00
   1.466395546646270E+00   1.484840531969162E+00   1.503517526646106E+00
   1.522429448995519E+00   1.541579254043744E+00   1.560969933986780E+00
   1.580604518657820E+00   1.600486076000665E+00   1.620617712549100E+00
   1.641002573912293E+00   1.661643845266304E+00   1.682544751851780E+00
   1.703708559477896E+00   1.725138575032653E+00   1.746838146999581E+00
   1.768810665980945E+00   1.791059565227544E+00   1.813588321175149E+00
   1.836400453987711E+00   1.859499528107395E+00   1.882889152811525E+00
   1.906572982776551E+00   1.930554718649089E+00   1.954838107624160E+00
   1.979426944030696E+00   2.004325069924411E+00   2.029536375688134E+00
   2.055064800639682E+00   2.080914333647393E+00   2.107089013753388E+00
   2.133592930804687E+00   2.160430226092254E+00   2.187605092998077E+00
   2.215121777650399E+00   2.242984579587179E+00   2.271197852427905E+00
   2.299766004553862E+00   2.328693499796942E+00   2.357984858137129E+00
   2.387644656408757E+00   2.417677529015647E+00   2.448088168655251E+00
   2.478881327051882E+00   2.510061815699188E+00   2.541634506611957E+00
   2.573604333087378E+00   2.605976290475885E+00   2.638755436961679E+00
   2.671946894353087E+00   2.705555848882856E+00   2.739587552018507E+00
   2.774047321282898E+00   2.808940541085082E+00   2.844272663561644E+00
   2.880049209428606E+00   2.916275768844044E+00   2.952958002281576E+00
   2.990101641414804E+00   3.027712490012911E+00   3.065796424847513E+00
   3.104359396610905E+00   3.143407430845889E+00   3.182946628887255E+00
   3.222983168815139E+00   3.263523306420361E+00   3.304573376181898E+00
   3.346139792256673E+00   3.388229049481763E+00   3.430847724389239E+00
   3.474002476233765E+00   3.517700048033114E+00   3.561947267621786E+00
   3.606751048717862E+00   3.652118392003293E+00   3.698056386217766E+00
   3.744572209266337E+00   3.791673129341001E+00   3.839366506056343E+00
   3.887659791599508E+00   3.936560531894616E+00   3.986076367781823E+00
   4.036215036211235E+00   4.086984371451799E+00   4.138392306315436E+00
   4.190446873396560E+00   4.243156206327178E+00   4.296528541047807E+00
   4.350572217094331E+00   4.405295678901083E+00   4.460707477120307E+00
   4.516816269958206E+00   4.573630824527825E+00   4.631160018218901E+00
   4.689412840084993E+00   4.748398392248030E+00   4.808125891320545E+00
   4.868604669845792E+00   4.929844177755954E+00   4.991853983848737E+00
   5.054643777282501E+00   5.118223369090215E+00   5.182602693712459E+00
   5.247791810549684E+00   5.313800905534022E+00   5.380640292720861E+00
   5.448320415900431E+00   5.516851850229685E+00   5.586245303884660E+00
   5.656511619733670E+00   5.727661777031526E+00   5.799706893135057E+00
   5.872658225240240E+00   5.946527172141134E+00   6.021325276010978E+00
   6.097064224205679E+00   6.173755851089982E+00   6.251412139886626E+00
   6.330045224548725E+00   6.409667391655736E+00   6.490291082333263E+00
   6.571928894196999E+00   6.654593583321152E+00   6.738298066231575E+00
   6.823055421924020E+00   6.908878893907755E+00   6.995781892274881E+00
   7.083777995795709E+00   7.172880954040438E+00   7.263104689527577E+00
   7.354463299899355E+00   7.446971060124508E+00   7.540642424728792E+00
   7.635492030053496E+00   7.731534696542425E+00   7.828785431057619E+00
   7.927259429224196E+00   8.026972077804730E+00   8.127938957103424E+00
   8.230175843400586E+00   8.333698711417702E+00   8.438523736813510E+00
   8.544667298711513E+00   8.652145982259201E+00   8.760976581219543E+00
   8.871176100595049E+00   8.982761759284809E+00   9.095750992775040E+00
   9.210161455863338E+00   9.326011025417335E+00   9.443317803167972E+00
   9.562100118537924E+00   9.682376531505648E+00   9.804165835505369E+00
   9.927487060363617E+00   1.005235947527268E+01   1.017880259180142E+01
   1.030683616694409E+01   1.043648020620725E+01   1.056775496673582E+01
   1.070068096047821E+01   1.083527895739136E+01   1.097156998868617E+01
   1.110957535011354E+01   1.124931660529197E+01   1.139081558907689E+01
   1.153409441097239E+01   1.167917545858591E+01   1.182608140112630E+01
   1.197483519294597E+01   1.212546007712752E+01   1.227797958911556E+01
   1.243241756039415E+01   1.258879812221050E+01   1.274714570934556E+01
   1.290748506393197E+01   1.306984123932009E+01   1.323423960399266E+01
   1.340070584552863E+01   1.356926597461691E+01   1.373994632912061E+01
   1.391277357819236E+01   1.408777472644148E+01   1.426497711815340E+01
   1.444440844156235E+01   1.462609673317768E+01   1.481007038216457E+01
   1.499635813478002E+01   1.518498909886435E+01   1.537599274838947E+01