<UPF version="2.0.1">
  <PP_INFO>
    Generated using "atomic" code by A. Dal Corso  v.7.2
    Author: ADC
    Generation date: 31May2024
    Pseudopotential type: PAW
    Element: Ir
    Functional:  SLA  PW   BEEX BEEC
    Suggested minimum cutoff for wavefunctions:  30. Ry
    Suggested minimum cutoff for charge density: 305. Ry
    The Pseudo was generated with a Scalar-Relativistic Calculation
    Local Potential by smoothing AE potential with Bessel fncs, cutoff radius:   2.1000
    Valence configuration: 
    nl pn  l   occ       Rcut    Rcut US       E pseu
    6S  1  0  2.00      1.900      2.400    -0.479848
    6P  2  1  0.00      2.300      2.700    -0.111909
    5D  3  2  7.00      1.100      2.000    -0.550589
    Generation configuration:
    6S  1  0  2.00      1.900      2.400    -0.479845
    6S  1  0  0.00      1.900      2.400     0.400000
    6P  2  1  0.00      2.300      2.700    -0.111911
    6P  2  1  0.00      2.300      2.700     6.400000
    5D  3  2  7.00      1.100      2.000    -0.550585
    5D  3  2  0.00      1.100      2.000     4.300000
    Pseudization used: troullier-martins
    <PP_INPUTFILE>
@input
title='Ir',
zed=77.,
rel=1,
config='[Xe] 4f14 6s2 6p0 5d7',
iswitch=3,
dft='SLA-PW-BEEX-BEEC'
/
@inputp
lpaw=.true.,
pseudotype=3,
file_pseudopw='Ir.beef-n-kjpaw_psl.1.0.0.UPF',
author='ADC',
lloc=-1,
rcloc=2.1,
which_augfun='PSQ',
rmatch_augfun_nc=.true.,
nlcc=.true.,
new_core_ps=.true.,
rcore=1.8,
tm=.true.
/
6
6S  1  0  2.00  0.00  1.90  2.40  0.0
6S  1  0  0.00  0.40  1.90  2.40  0.0
6P  2  1  0.00  0.00  2.30  2.70  0.0
6P  2  1  0.00  6.40  2.30  2.70  0.0
5D  3  2  7.00  0.00  1.10  2.00  0.0
5D  3  2  0.00  4.30  1.10  2.00  0.0
    </PP_INPUTFILE>
  </PP_INFO>
    <!-- END OF HUMAN READABLE SECTION -->
  <PP_HEADER generated="Generated using 'atomic' code by A. Dal Corso  v.7.2" author="ADC" date="31May2024" comment="" element="Ir" pseudo_type="PAW" relativistic="scalar" is_ultrasoft="true" is_paw="true" is_coulomb="false" has_so="false" has_wfc="true" has_gipaw="false" paw_as_gipaw="false" core_correction="true" functional=" SLA  PW   BEEX BEEC" z_valence="9.00000000000000" total_psenergy="-744.641651531652" wfc_cutoff="29.7292831950007" rho_cutoff="304.702286401395" l_max="2" l_max_rho="4" l_local="-1" mesh_size="1277" number_of_wfc="3" number_of_proj="6"/>
  <PP_MESH mesh="1277" dx="1.250000000000000E-002" xmin="-7.00000000000000" rmax="100.000000000000" zmesh="77.0000000000000">
    <PP_R>
   1.184262292927943E-05   1.199158478790938E-05   1.214242035605951E-05
   1.229515320209421E-05   1.244980719083143E-05   1.260640648727154E-05
   1.276497556037323E-05   1.292553918687677E-05   1.308812245517546E-05
   1.325275076923577E-05   1.341944985256671E-05   1.358824575223920E-05
   1.375916484295598E-05   1.393223383117269E-05   1.410747975927088E-05
   1.428493000978335E-05   1.446461230967277E-05   1.464655473466406E-05
   1.483078571363127E-05   1.501733403303971E-05   1.520622884144382E-05
   1.539749965404173E-05   1.559117635728702E-05   1.578728921355863E-05
   1.598586886588936E-05   1.618694634275389E-05   1.639055306291707E-05
   1.659672084034317E-05   1.680548188916686E-05   1.701686882872675E-05
   1.723091468866223E-05   1.744765291407437E-05   1.766711737075187E-05
   1.788934235046256E-05   1.811436257631167E-05   1.834221320816729E-05
   1.857292984815421E-05   1.880654854621682E-05   1.904310580575199E-05
   1.928263858931282E-05   1.952518432438406E-05   1.977078090923028E-05
   2.001946671881754E-05   2.027128061080951E-05   2.052626193163918E-05
   2.078445052265668E-05   2.104588672635463E-05   2.131061139267177E-05
   2.157866588537577E-05   2.185009208852651E-05   2.212493241302044E-05
   2.240322980321743E-05   2.268502774365090E-05   2.297037026582234E-05
   2.325930195508142E-05   2.355186795759240E-05   2.384811398738841E-05
   2.414808633351430E-05   2.445183186725945E-05   2.475939804948151E-05
   2.507083293802220E-05   2.538618519521646E-05   2.570550409549606E-05
   2.602883953308882E-05   2.635624202981473E-05   2.668776274297999E-05
   2.702345347337051E-05   2.736336667334590E-05   2.770755545503517E-05
   2.805607359863577E-05   2.840897556081669E-05   2.876631648322749E-05
   2.912815220111433E-05   2.949453925204425E-05   2.986553488473943E-05
   3.024119706802226E-05   3.062158449987315E-05   3.100675661660225E-05
   3.139677360213641E-05   3.179169639742315E-05   3.219158670995271E-05
   3.259650702339998E-05   3.300652060738777E-05   3.342169152737273E-05
   3.384208465465582E-05   3.426776567651846E-05   3.469880110648637E-05
   3.513525829472242E-05   3.557720543855024E-05   3.602471159311024E-05
   3.647784668214952E-05   3.693668150894763E-05   3.740128776737978E-05
   3.787173805311906E-05   3.834810587497982E-05   3.883046566640338E-05
   3.931889279708851E-05   3.981346358476809E-05   4.031425530713388E-05
   4.082134621391144E-05   4.133481553908658E-05   4.185474351328606E-05
   4.238121137631361E-05   4.291430138984392E-05   4.345409685027626E-05
   4.400068210174950E-05   4.455414254932122E-05   4.511456467231238E-05
   4.568203603781985E-05   4.625664531439908E-05   4.683848228591858E-05
   4.742763786558888E-05   4.802420411016795E-05   4.862827423434520E-05
   4.923994262530659E-05   4.985930485748265E-05   5.048645770748221E-05
   5.112149916921407E-05   5.176452846919858E-05   5.241564608207219E-05
   5.307495374628658E-05   5.374255448000567E-05   5.441855259720233E-05
   5.510305372395767E-05   5.579616481496545E-05   5.649799417024375E-05
   5.720865145205722E-05   5.792824770205197E-05   5.865689535860607E-05
   5.939470827439835E-05   6.014180173419800E-05   6.089829247287807E-05
   6.166429869365555E-05   6.243994008656091E-05   6.322533784713978E-05
   6.402061469539028E-05   6.482589489493789E-05   6.564130427245213E-05
   6.646697023730721E-05   6.730302180148992E-05   6.814958959975825E-05
   6.900680591005294E-05   6.987480467416649E-05   7.075372151867181E-05
   7.164369377611392E-05   7.254486050646883E-05   7.345736251887153E-05
   7.438134239361799E-05   7.531694450444346E-05   7.626431504108119E-05
   7.722360203210512E-05   7.819495536805920E-05   7.917852682487842E-05
   8.017447008760398E-05   8.118294077439690E-05   8.220409646085386E-05
   8.323809670462835E-05   8.428510307036216E-05   8.534527915493012E-05
   8.641879061300226E-05   8.750580518292814E-05   8.860649271294581E-05
   8.972102518772120E-05   9.084957675522100E-05   9.199232375392362E-05
   9.314944474037272E-05   9.432112051707651E-05   9.550753416075891E-05
   9.670887105096551E-05   9.792531889902947E-05   9.915706777740210E-05
   1.004043101493516E-04   1.016672408990360E-04   1.029460573619546E-04
   1.042409593557812E-04   1.055521492115872E-04   1.068798318054549E-04
   1.082242145904910E-04   1.095855076292407E-04   1.109639236265109E-04
   1.123596779626056E-04   1.137729887269796E-04   1.152040767523150E-04
   1.166531656490276E-04   1.181204818402054E-04   1.196062545969888E-04
   1.211107160743939E-04   1.226341013475872E-04   1.241766484486171E-04
   1.257385984036063E-04   1.273201952704134E-04   1.289216861767664E-04
   1.305433213588777E-04   1.321853542005439E-04   1.338480412727369E-04
   1.355316423736949E-04   1.372364205695150E-04   1.389626422352588E-04
   1.407105770965735E-04   1.424804982718374E-04   1.442726823148351E-04
   1.460874092579697E-04   1.479249626560179E-04   1.497856296304368E-04
   1.516697009142265E-04   1.535774708973587E-04   1.555092376727743E-04
   1.574653030829623E-04   1.594459727671227E-04   1.614515562089231E-04
   1.634823667848571E-04   1.655387218132087E-04   1.676209426036347E-04
   1.697293545073700E-04   1.718642869680640E-04   1.740260735732575E-04
   1.762150521065056E-04   1.784315646001577E-04   1.806759573888004E-04
   1.829485811633730E-04   1.852497910259644E-04   1.875799465452971E-04
   1.899394118129120E-04   1.923285555000573E-04   1.947477509152948E-04
   1.971973760628305E-04   1.996778137015771E-04   2.021894514049622E-04
   2.047326816214870E-04   2.073079017360469E-04   2.099155141320243E-04
   2.125559262541614E-04   2.152295506722241E-04   2.179368051454672E-04
   2.206781126879100E-04   2.234539016344335E-04   2.262646057077080E-04
   2.291106640859631E-04   2.319925214716110E-04   2.349106281607312E-04
   2.378654401134309E-04   2.408574190250894E-04   2.438870323984988E-04
   2.469547536169124E-04   2.500610620180121E-04   2.532064429688052E-04
   2.563913879414647E-04   2.596163945901225E-04   2.628819668286285E-04
   2.661886149092891E-04   2.695368555025941E-04   2.729272117779484E-04
   2.763602134854178E-04   2.798363970385035E-04   2.833563055979581E-04
   2.869204891566551E-04   2.905295046255273E-04   2.941839159205841E-04
   2.978842940510251E-04   3.016312172084620E-04   3.054252708572611E-04
   3.092670478260244E-04   3.131571484002191E-04   3.170961804159745E-04
   3.210847593550572E-04   3.251235084410409E-04   3.292130587366876E-04
   3.333540492425511E-04   3.375471269968227E-04   3.417929471764327E-04
   3.460921731994219E-04   3.504454768286037E-04   3.548535382765269E-04
   3.593170463117607E-04   3.638366983665172E-04   3.684132006456247E-04
   3.730472682368757E-04   3.777396252227595E-04   3.824910047936012E-04
   3.873021493621261E-04   3.921738106794611E-04   3.971067499525987E-04
   4.021017379633363E-04   4.071595551887129E-04   4.122809919229604E-04
   4.174668484009879E-04   4.227179349234212E-04   4.280350719832125E-04
   4.334190903938452E-04   4.388708314191501E-04   4.443911469047536E-04
   4.499808994111821E-04   4.556409623486369E-04   4.613722201134671E-04
   4.671755682263593E-04   4.730519134722628E-04   4.790021740420781E-04
   4.850272796761249E-04   4.911281718094167E-04   4.973058037187619E-04
   5.035611406717144E-04   5.098951600774002E-04   5.163088516392379E-04
   5.228032175095825E-04   5.293792724463146E-04   5.360380439713967E-04
   5.427805725314275E-04   5.496079116602119E-04   5.565211281433791E-04
   5.635213021850698E-04   5.706095275767197E-04   5.777869118679678E-04
   5.850545765397120E-04   5.924136571793429E-04   5.998653036581834E-04
   6.074106803111556E-04   6.150509661187134E-04   6.227873548910581E-04
   6.306210554546750E-04   6.385532918412154E-04   6.465853034787525E-04
   6.547183453854465E-04   6.629536883656418E-04   6.712926192084336E-04
   6.797364408887325E-04   6.882864727708549E-04   6.969440508146770E-04
   7.057105277843831E-04   7.145872734598341E-04   7.235756748506029E-04
   7.326771364126931E-04   7.418930802679908E-04   7.512249464264739E-04
   7.606741930112147E-04   7.702422964862175E-04   7.799307518871166E-04
   7.897410730547789E-04   7.996747928718472E-04   8.097334635022523E-04
   8.199186566337455E-04   8.302319637234753E-04   8.406749962466566E-04
   8.512493859483683E-04   8.619567850985143E-04   8.727988667499972E-04
   8.837773250001328E-04   8.948938752553582E-04   9.061502544992684E-04
   9.175482215640207E-04   9.290895574051592E-04   9.407760653798896E-04
   9.526095715288588E-04   9.645919248614793E-04   9.767249976448363E-04
   9.890106856962383E-04   1.001450908679438E-03   1.014047610404587E-03
   1.026802759131957E-03   1.039718347879488E-03   1.052796394734198E-03
   1.066038943167517E-03   1.079448062354579E-03   1.093025847497538E-03
   1.106774420152946E-03   1.120695928563254E-03   1.134792547992473E-03
   1.149066481066069E-03   1.163519958115126E-03   1.178155237524838E-03
   1.192974606087389E-03   1.207980379359267E-03   1.223174902023074E-03
   1.238560548253892E-03   1.254139722090244E-03   1.269914857809741E-03
   1.285888420309433E-03   1.302062905490958E-03   1.318440840650533E-03
   1.335024784873849E-03   1.351817329435931E-03   1.368821098206031E-03
   1.386038748057613E-03   1.403472969283498E-03   1.421126486016220E-03
   1.439002056653687E-03   1.457102474290179E-03   1.475430567152776E-03
   1.493989199043278E-03   1.512781269785675E-03   1.531809715679254E-03
   1.551077509957398E-03   1.570587663252165E-03   1.590343224064701E-03
   1.610347279241574E-03   1.630602954457107E-03   1.651113414701762E-03
   1.671881864776678E-03   1.692911549794438E-03   1.714205755686107E-03
   1.735767809714681E-03   1.757601080994971E-03   1.779708981020032E-03
   1.802094964194225E-03   1.824762528372963E-03   1.847715215409268E-03
   1.870956611707186E-03   1.894490348782174E-03   1.918320103828531E-03
   1.942449600293962E-03   1.966882608461384E-03   1.991622946038032E-03
   2.016674478751987E-03   2.042041120956203E-03   2.067726836240134E-03
   2.093735638049049E-03   2.120071590311148E-03   2.146738808072553E-03
   2.173741458140293E-03   2.201083759733379E-03   2.228769985142062E-03
   2.256804460395392E-03   2.285191565937163E-03   2.313935737310370E-03
   2.343041465850270E-03   2.372513299386165E-03   2.402355842952004E-03
   2.432573759505936E-03   2.463171770658900E-03   2.494154657412392E-03
   2.525527260905501E-03   2.557294483171352E-03   2.589461287903055E-03
   2.622032701229292E-03   2.655013812499663E-03   2.688409775079905E-03
   2.722225807157115E-03   2.756467192555106E-03   2.791139281560009E-03
   2.826247491756272E-03   2.861797308873168E-03   2.897794287641946E-03
   2.934244052663779E-03   2.971152299288604E-03   3.008524794505050E-03
   3.046367377841529E-03   3.084685962278678E-03   3.123486535173276E-03
   3.162775159193777E-03   3.202557973267618E-03   3.242841193540436E-03
   3.283631114347358E-03   3.324934109196495E-03   3.366756631764826E-03
   3.409105216906589E-03   3.451986481674372E-03   3.495407126353038E-03
   3.539373935506658E-03   3.583893779038613E-03   3.628973613265031E-03
   3.674620482001726E-03   3.720841517664807E-03   3.767643942385135E-03
   3.815035069136791E-03   3.863022302879749E-03   3.911613141716911E-03
   3.960815178065706E-03   4.010636099844415E-03   4.061083691673427E-03
   4.112165836091601E-03   4.163890514787932E-03   4.216265809848699E-03
   4.269299905020315E-03   4.323001086988048E-03   4.377377746670837E-03
   4.432438380532386E-03   4.488191591908761E-03   4.544646092352668E-03
   4.601810702994660E-03   4.659694355921451E-03   4.718306095571576E-03
   4.777655080148603E-03   4.837750583052118E-03   4.898601994326715E-03
   4.960218822129208E-03   5.022610694214303E-03   5.085787359438950E-03
   5.149758689285623E-03   5.214534679404763E-03   5.280125451176614E-03
   5.346541253292709E-03   5.413792463357254E-03   5.481889589508644E-03
   5.550843272061387E-03   5.620664285168667E-03   5.691363538505837E-03
   5.762952078975065E-03   5.835441092431452E-03   5.908841905430827E-03
   5.983165986999558E-03   6.058424950426604E-03   6.134630555078115E-03
   6.211794708234860E-03   6.289929466952762E-03   6.369047039946835E-03
   6.449159789498827E-03   6.530280233388846E-03   6.612421046851290E-03
   6.695595064555381E-03   6.779815282610600E-03   6.865094860597370E-03
   6.951447123623252E-03   7.038885564405030E-03   7.127423845376969E-03
   7.217075800825604E-03   7.307855439051375E-03   7.399776944557445E-03
   7.492854680266063E-03   7.587103189762806E-03   7.682537199569029E-03
   7.779171621442931E-03   7.877021554709528E-03   7.976102288619974E-03
   8.076429304740524E-03   8.178018279371561E-03   8.280885085997058E-03
   8.385045797764834E-03   8.490516689998019E-03   8.597314242738107E-03
   8.705455143319994E-03   8.814956288979410E-03   8.925834789493148E-03
   9.038107969852497E-03   9.151793372970307E-03   9.266908762422114E-03
   9.383472125221720E-03   9.501501674631716E-03   9.621015853009328E-03
   9.742033334688078E-03   9.864573028895698E-03   9.988654082708713E-03
   1.011429588404422E-02   1.024151806468931E-02   1.037034050336854E-02
   1.050078332885004E-02   1.063286692309068E-02   1.076661192442079E-02
   1.090203923076893E-02   1.103917000292725E-02   1.117802566785790E-02
   1.131862792204102E-02   1.146099873486488E-02   1.160516035205865E-02
   1.175113529916831E-02   1.189894638507634E-02   1.204861670556563E-02
   1.220016964692826E-02   1.235362888961967E-02   1.250901841195873E-02
   1.266636249387446E-02   1.282568572069976E-02   1.298701298701299E-02
   1.315036950052773E-02   1.331578078603155E-02   1.348327268937436E-02
   1.365287138150681E-02   1.382460336256961E-02   1.399849546603418E-02
   1.417457486289548E-02   1.435286906591751E-02   1.453340593393222E-02
   1.471621367619256E-02   1.490132085678017E-02   1.508875639906862E-02
   1.527854959024274E-02   1.547073008587479E-02   1.566532791455820E-02
   1.586237348259962E-02   1.606189757876994E-02   1.626393137911513E-02
   1.646850645182753E-02   1.667565476217847E-02   1.688540867751288E-02
   1.709780097230678E-02   1.731286483328835E-02   1.753063386462343E-02
   1.775114209316619E-02   1.797442397377600E-02   1.820051439470096E-02
   1.842944868302932E-02   1.866126261020942E-02   1.889599239763898E-02
   1.913367472232488E-02   1.937434672261391E-02   1.961804600399576E-02
   1.986481064497895E-02   2.011467920304070E-02   2.036769072065155E-02
   2.062388473137590E-02   2.088330126604914E-02   2.114598085903261E-02
   2.141196455454713E-02   2.168129391308628E-02   2.195401101791029E-02
   2.223015848162162E-02   2.250977945282332E-02   2.279291762286103E-02
   2.307961723264986E-02   2.336992307958714E-02   2.366388052455207E-02
   2.396153549899352E-02   2.426293451210679E-02   2.456812465810091E-02
   2.487715362355710E-02   2.519006969487993E-02   2.550692176584218E-02
   2.582775934522458E-02   2.615263256455166E-02   2.648159218592488E-02
   2.681468960995438E-02   2.715197688379034E-02   2.749350670925553E-02
   2.783933245108000E-02   2.818950814523952E-02   2.854408850739874E-02
   2.890312894146063E-02   2.926668554822350E-02   2.963481513414681E-02
   3.000757522022734E-02   3.038502405098691E-02   3.076722060357326E-02
   3.115422459697531E-02   3.154609650135441E-02   3.194289754749287E-02
   3.234468973636145E-02   3.275153584880713E-02   3.316349945536270E-02
   3.358064492617983E-02   3.400303744108704E-02   3.443074299977412E-02
   3.486382843210482E-02   3.530236140855905E-02   3.574641045080656E-02
   3.619604494241366E-02   3.665133513968444E-02   3.711235218263851E-02
   3.757916810612678E-02   3.805185585108705E-02   3.853048927594115E-02
   3.901514316813551E-02   3.950589325582682E-02   4.000281621971472E-02
   4.050598970502330E-02   4.101549233363336E-02   4.153140371636724E-02
   4.205380446542809E-02   4.258277620699578E-02   4.311840159398116E-02
   4.366076431894066E-02   4.420994912715352E-02   4.476604182986333E-02
   4.532912931768627E-02   4.589929957418794E-02   4.647664168963091E-02
   4.706124587489537E-02   4.765320347557463E-02   4.825260698624813E-02
   4.885955006493392E-02   4.947412754772289E-02   5.009643546359709E-02
   5.072657104943447E-02   5.136463276520233E-02   5.201072030934190E-02
   5.266493463434645E-02   5.332737796253526E-02   5.399815380202610E-02
   5.467736696290861E-02   5.536512357362103E-02   5.606153109753307E-02
   5.676669834973715E-02   5.748073551405112E-02   5.820375416023464E-02
   5.893586726142214E-02   5.967718921177521E-02   6.042783584435679E-02
   6.118792444923044E-02   6.195757379178708E-02   6.273690413130235E-02
   6.352603723972737E-02   6.432509642071581E-02   6.513420652889042E-02
   6.595349398935173E-02   6.678308681743231E-02   6.762311463869937E-02
   6.847370870920902E-02   6.933500193601531E-02   7.020712889793726E-02
   7.109022586658703E-02   7.198443082766268E-02   7.288988350250857E-02
   7.380672536994735E-02   7.473509968838615E-02   7.567515151820099E-02
   7.662702774440286E-02   7.759087709958866E-02   7.856685018718115E-02
   7.955509950496090E-02   8.055577946889439E-02   8.156904643726191E-02
   8.259505873508877E-02   8.363397667888392E-02   8.468596260168981E-02
   8.575118087844714E-02   8.682979795167887E-02   8.792198235749714E-02
   8.902790475193742E-02   9.014773793762387E-02   9.128165689077009E-02
   9.242983878851946E-02   9.359246303662951E-02   9.476971129750435E-02
   9.596176751857990E-02   9.716881796106601E-02   9.839105122904998E-02
   9.962865829896667E-02   1.008818325494387E-01   1.021507697914922E-01
   1.034356682991529E-01   1.047367288404270E-01   1.060541547086708E-01
   1.073881517543568E-01   1.087389284172373E-01   1.101066957589140E-01
   1.114916674958168E-01   1.128940600325975E-01   1.143140924959430E-01
   1.157519867688148E-01   1.172079675251185E-01   1.186822622648094E-01
   1.201751013494402E-01   1.216867180381550E-01   1.232173485241368E-01
   1.247672319715131E-01   1.263366105527258E-01   1.279257294863713E-01
   1.295348370755159E-01   1.311641847464942E-01   1.328140270881949E-01
   1.344846218918402E-01   1.361762301912673E-01   1.378891163037144E-01
   1.396235478711216E-01   1.413797959019499E-01   1.431581348135273E-01
   1.449588424749269E-01   1.467822002503843E-01   1.486284930432614E-01
   1.504980093405636E-01   1.523910412580158E-01   1.543078845857066E-01
   1.562488388343057E-01   1.582142072818634E-01   1.602042970211982E-01
   1.622194190078807E-01   1.642598881088212E-01   1.663260231514681E-01
   1.684181469736252E-01   1.705365864738964E-01   1.726816726627635E-01
   1.748537407143078E-01   1.770531300185814E-01   1.792801842346377E-01
   1.815352513442291E-01   1.838186837061793E-01   1.861308381114407E-01
   1.884720758388432E-01   1.908427627115448E-01   1.932432691541928E-01
   1.956739702508025E-01   1.981352458033658E-01   2.006274803911952E-01
   2.031510634310153E-01   2.057063892378107E-01   2.082938570864374E-01
   2.109138712740110E-01   2.135668411830787E-01   2.162531813455864E-01
   2.189733115076499E-01   2.217276566951411E-01   2.245166472800993E-01
   2.273407190479778E-01   2.302003132657357E-01   2.330958767507877E-01
   2.360278619408191E-01   2.389967269644812E-01   2.420029357129742E-01
   2.450469579125311E-01   2.481292691978137E-01   2.512503511862314E-01
   2.544106915531948E-01   2.576107841083160E-01   2.608511288725672E-01
   2.641322321564106E-01   2.674546066389096E-01   2.708187714478366E-01
   2.742252522407874E-01   2.776745812873163E-01   2.811672975521048E-01
   2.847039467791749E-01   2.882850815771643E-01   2.919112615056705E-01
   2.955830531626849E-01   2.993010302731245E-01   3.030657737784769E-01
   3.068778719275744E-01   3.107379203685084E-01   3.146465222417011E-01
   3.186042882741476E-01   3.226118368748422E-01   3.266697942314075E-01
   3.307787944079363E-01   3.349394794440659E-01   3.391524994552984E-01
   3.434185127345818E-01   3.477381858551706E-01   3.521121937747780E-01
   3.565412199410404E-01   3.610259563983075E-01   3.655671038957747E-01
   3.701653719969779E-01   3.748214791906628E-01   3.795361530030513E-01
   3.843101301115191E-01   3.891441564597016E-01   3.940389873740511E-01
   3.989953876818563E-01   4.040141318307490E-01   4.090960040097136E-01
   4.142417982716171E-01   4.194523186572817E-01   4.247283793211191E-01
   4.300708046583419E-01   4.354804294337786E-01   4.409580989123061E-01
   4.465046689909247E-01   4.521210063324941E-01   4.578079885011501E-01
   4.635665040994272E-01   4.693974529071032E-01   4.753017460217923E-01
   4.812803060013064E-01   4.873340670078054E-01   4.934639749537634E-01
   4.996709876497682E-01   5.059560749541816E-01   5.123202189246825E-01
   5.187644139717137E-01   5.252896670138625E-01   5.318969976351925E-01
   5.385874382445555E-01   5.453620342369092E-01   5.522218441566598E-01
   5.591679398630641E-01   5.662014066977081E-01   5.733233436540942E-01
   5.805348635493618E-01   5.878370931981660E-01   5.952311735887467E-01
   6.027182600612078E-01   6.102995224880430E-01   6.179761454569312E-01
   6.257493284558291E-01   6.336202860603953E-01   6.415902481237691E-01
   6.496604599687372E-01   6.578321825823203E-01   6.661066928128017E-01
   6.744852835692399E-01   6.829692640234867E-01   6.915599598147486E-01
   7.002587132567216E-01   7.090668835473284E-01   7.179858469810966E-01
   7.270169971642098E-01   7.361617452322574E-01   7.454215200707304E-01
   7.547977685382862E-01   7.642919556928235E-01   7.739055650204024E-01
   7.836400986670390E-01   7.934970776734205E-01   8.034780422125707E-01
   8.135845518305047E-01   8.238181856899136E-01   8.341805428169077E-01
   8.446732423508703E-01   8.552979237974514E-01   8.660562472847430E-01
   8.769498938226773E-01   8.879805655656903E-01   8.991499860786837E-01
   9.104599006063367E-01   9.219120763458043E-01   9.335083027228451E-01
   9.452503916714243E-01   9.571401779168291E-01   9.691795192623504E-01
   9.813702968795673E-01   9.937144156022842E-01   1.006213804224168E+00
   1.018870415800119E+00   1.031686227951447E+00   1.044663243174874E+00
   1.057803489155430E+00   1.071109019083286E+00   1.084581911974562E+00
   1.098224272996183E+00   1.112038233794814E+00   1.126025952829934E+00
   1.140189615711102E+00   1.154531435539459E+00   1.169053653253531E+00
   1.183758537979382E+00   1.198648387385167E+00   1.213725528040152E+00
   1.228992315778236E+00   1.244451136066064E+00   1.260104404375759E+00
   1.275954566562338E+00   1.292004099245894E+00   1.308255510198560E+00
   1.324711338736361E+00   1.341374156115985E+00   1.358246565936548E+00
   1.375331204546415E+00   1.392630741455124E+00   1.410147879750516E+00
   1.427885356521086E+00   1.445845943283667E+00   1.464032446416484E+00
   1.482447707597650E+00   1.501094604249192E+00   1.519976049986648E+00
   1.539094995074329E+00   1.558454426886305E+00   1.578057370373182E+00
   1.597906888534762E+00   1.618006082898642E+00   1.638358094004833E+00
   1.658966101896479E+00   1.679833326616740E+00   1.700963028711931E+00
   1.722358509740996E+00   1.744023112791370E+00   1.765960223001363E+00
   1.788173268089074E+00   1.810665718887991E+00   1.833441089889312E+00
   1.856502939791091E+00   1.879854872054299E+00   1.903500535465859E+00
   1.927443624708789E+00   1.951687880939493E+00   1.976237092372333E+00
   2.001095094871542E+00   2.026265772550586E+00   2.051753058379060E+00
   2.077560934797229E+00   2.103693434338290E+00   2.130154640258465E+00
   2.156948687175015E+00   2.184079761712280E+00   2.211552103155859E+00
   2.239370004114992E+00   2.267537811193303E+00   2.296059925667954E+00
   2.324940804177361E+00   2.354184959417550E+00   2.383796960847273E+00
   2.413781435402002E+00   2.444143068216889E+00   2.474886603358833E+00
   2.506016844567748E+00   2.537538656007155E+00   2.569456963024228E+00
   2.601776752919374E+00   2.634503075725520E+00   2.667641044997187E+00
   2.701195838609489E+00   2.735172699567202E+00   2.769576936823975E+00
   2.804413926111874E+00   2.839689110781353E+00   2.875408002651781E+00
   2.911576182872690E+00   2.948199302795819E+00   2.985283084858169E+00
   3.022833323476134E+00   3.060855885950891E+00   3.099356713385190E+00
   3.138341821611646E+00   3.177817302132735E+00   3.217789323072602E+00
   3.258264130140839E+00   3.299248047608403E+00   3.340747479295779E+00
   3.382768909573598E+00   3.425318904375835E+00   3.468404112225742E+00
   3.512031265274711E+00   3.556207180354163E+00   3.600938760040704E+00
   3.646232993734669E+00   3.692096958752220E+00   3.738537821431209E+00
   3.785562838250911E+00   3.833179356965877E+00   3.881394817754034E+00
   3.930216754379219E+00   3.979652795368367E+00   4.029710665203460E+00
   4.080398185528500E+00   4.131723276371663E+00   4.183693957382812E+00
   4.236318349086598E+00   4.289604674151285E+00   4.343561258673575E+00
   4.398196533479578E+00   4.453519035442135E+00   4.509537408814737E+00
   4.566260406582193E+00   4.623696891828304E+00   4.681855839120749E+00
   4.740746335913363E+00   4.800377583966090E+00   4.860758900782756E+00
   4.921899721066960E+00   4.983809598196263E+00   5.046498205714919E+00
   5.109975338845404E+00   5.174250916018909E+00   5.239334980425136E+00
   5.305237701581565E+00   5.371969376922451E+00   5.439540433407844E+00
   5.507961429152787E+00   5.577243055077069E+00   5.647396136575697E+00
   5.718431635210376E+00   5.790360650422301E+00   5.863194421266435E+00
   5.936944328167654E+00   6.011621894698956E+00   6.087238789382039E+00
   6.163806827510552E+00   6.241337972996226E+00   6.319844340238281E+00
   6.399338196016322E+00   6.479831961407039E+00   6.561338213725052E+00
   6.643869688488107E+00   6.727439281407045E+00   6.812060050400785E+00
   6.897745217636638E+00   6.984508171596324E+00   7.072362469167914E+00
   7.161321837764146E+00   7.251400177467350E+00   7.342611563201366E+00
   7.434970246930797E+00   7.528490659887876E+00   7.623187414827395E+00
   7.719075308309977E+00   7.816169323014055E+00   7.914484630076982E+00
   8.014036591465501E+00   8.114840762376122E+00   8.216912893665638E+00
   8.320268934312219E+00   8.424925033907511E+00   8.530897545179997E+00
   8.638203026550160E+00   8.746858244717785E+00   8.856880177281759E+00
   8.968286015392906E+00   9.081093166440075E+00   9.195319256770130E+00
   9.310982134442076E+00   9.428099872015862E+00   9.546690769376276E+00
   9.666773356592300E+00   9.788366396812494E+00   9.911488889196775E+00
   1.003616007188506E+01   1.016239942500332E+01   1.029022667370730E+01
   1.041966179126467E+01   1.055072500217590E+01   1.068343678533432E+01
   1.081781787722608E+01   1.095388927517017E+01   1.109167224059938E+01
   1.123118830238236E+01   1.137245926018761E+01   1.151550718788972E+01
   1.166035443701842E+01   1.180702364025108E+01   1.195553771494910E+01
   1.210591986673881E+01   1.225819359313739E+01   1.241238268722438E+01
   1.256851124135945E+01   1.272660365094681E+01   1.288668461824709E+01
   1.304877915623716E+01   1.321291259251833E+01   1.337911057327396E+01
   1.354739906727668E+01   1.371780436994604E+01   1.389035310745732E+01
   1.406507224090177E+01   1.424198907049947E+01   1.442113123986500E+01
   1.460252674032676E+01   1.478620391530078E+01   1.497219146471933E+01
   1.516051844951541E+01   1.535121429616353E+01   1.554430880127771E+01
   1.573983213626724E+01   1.593781485205100E+01   1.613828788383113E+01