<UPF version="2.0.1">
  <PP_INFO>
    Generated using "atomic" code by A. Dal Corso  v.7.2
    Author: ADC
    Generation date: 31May2024
    Pseudopotential type: PAW
    Element: Kr
    Functional:  SLA  PW   BEEX BEEC
    Suggested minimum cutoff for wavefunctions:  63. Ry
    Suggested minimum cutoff for charge density: 308. Ry
    The Pseudo was generated with a Scalar-Relativistic Calculation
    Local Potential by smoothing AE potential with Bessel fncs, cutoff radius:   2.0000
    Valence configuration: 
    nl pn  l   occ       Rcut    Rcut US       E pseu
    4S  1  0  2.00      1.500      1.700    -1.724305
    4P  2  1  6.00      1.800      2.000    -0.706417
    3D  3  2 10.00      1.200      1.400    -6.058100
    Generation configuration:
    4S  1  0  2.00      1.500      1.700    -1.724303
    4S  1  0  0.00      1.500      1.700     6.000000
    4P  2  1  6.00      1.800      2.000    -0.706413
    4P  2  1  0.00      1.800      2.000     6.000000
    3D  3  2 10.00      1.200      1.400    -6.058097
    3D  3  2  0.00      1.200      1.400     0.050000
    Pseudization used: troullier-martins
    <PP_INPUTFILE>
@input
title='Kr',
zed=36.,
rel=1,
config='[Ar] 4s2 4p6 3d10',
iswitch=3,
dft='SLA-PW-BEEX-BEEC'
/
@inputp
lpaw=.true.,
pseudotype=3,
file_pseudopw='Kr.beef-dn-kjpaw_psl.1.0.0.UPF',
author='ADC',
lloc=-1,
rcloc=2.0,
which_augfun='PSQ',
rmatch_augfun_nc=.true.,
nlcc=.true.,
new_core_ps=.true.,
rcore=1.8,
tm=.true.
/
6
4S  1  0  2.00  0.00  1.50  1.70  0.0
4S  1  0  0.00  6.00  1.50  1.70  0.0
4P  2  1  6.00  0.00  1.80  2.00  0.0
4P  2  1  0.00  6.00  1.80  2.00  0.0
3D  3  2 10.00  0.00  1.20  1.40  0.0
3D  3  2  0.00  0.05  1.20  1.40  0.0
    </PP_INPUTFILE>
  </PP_INFO>
    <!-- END OF HUMAN READABLE SECTION -->
  <PP_HEADER generated="Generated using 'atomic' code by A. Dal Corso  v.7.2" author="ADC" date="31May2024" comment="" element="Kr" pseudo_type="PAW" relativistic="scalar" is_ultrasoft="true" is_paw="true" is_coulomb="false" has_so="false" has_wfc="true" has_gipaw="false" paw_as_gipaw="false" core_correction="true" functional=" SLA  PW   BEEX BEEC" z_valence="18.0000000000000" total_psenergy="-511.461349198907" wfc_cutoff="62.7814705828734" rho_cutoff="308.407471391415" l_max="2" l_max_rho="4" l_local="-1" mesh_size="1217" number_of_wfc="3" number_of_proj="6"/>
  <PP_MESH mesh="1217" dx="1.250000000000000E-002" xmin="-7.00000000000000" rmax="100.000000000000" zmesh="36.0000000000000">
    <PP_R>
   2.533005459873656E-05   2.564866746302840E-05   2.597128798379395E-05
   2.629796657114594E-05   2.662875426927833E-05   2.696370276444192E-05
   2.730286439302052E-05   2.764629214970865E-05   2.799403969579196E-05
   2.834616136753207E-05   2.870271218465658E-05   2.906374785895607E-05
   2.942932480298917E-05   2.979950013889714E-05   3.017433170732939E-05
   3.055387807648106E-05   3.093819855124453E-05   3.132735318247590E-05
   3.172140277637799E-05   3.212040890400161E-05   3.252443391086595E-05
   3.293354092670036E-05   3.334779387530836E-05   3.376725748455597E-05
   3.419199729648559E-05   3.462207967755693E-05   3.505757182901707E-05
   3.549854179740068E-05   3.594505848516244E-05   3.639719166144333E-05
   3.685501197297198E-05   3.731859095510352E-05   3.778800104299705E-05
   3.826331558293380E-05   3.874460884377774E-05   3.923195602858004E-05
   3.972543328632985E-05   4.022511772385265E-05   4.073108741785842E-05
   4.124342142714130E-05   4.176219980493257E-05   4.228750361140921E-05
   4.281941492635973E-05   4.335801686200923E-05   4.390339357600603E-05
   4.445563028457123E-05   4.501481327581408E-05   4.558102992321461E-05
   4.615436869927594E-05   4.673491918934836E-05   4.732277210562705E-05
   4.791801930132617E-05   4.852075378503110E-05   4.913106973523113E-05
   4.974906251503527E-05   5.037482868707265E-05   5.100846602858075E-05
   5.165007354668336E-05   5.229975149386048E-05   5.295760138361324E-05
   5.362372600632526E-05   5.429822944532408E-05   5.498121709314435E-05
   5.567279566799553E-05   5.637307323043706E-05   5.708215920026275E-05
   5.780016437359803E-05   5.852720094021206E-05   5.926338250104745E-05
   6.000882408597096E-05   6.076364217174681E-05   6.152795470023659E-05
   6.230188109682788E-05   6.308554228909463E-05   6.387906072569267E-05
   6.468256039549204E-05   6.549616684695091E-05   6.632000720773260E-05
   6.715421020456954E-05   6.799890618337730E-05   6.885422712962108E-05
   6.972030668893884E-05   7.059728018802384E-05   7.148528465576944E-05
   7.238445884468050E-05   7.329494325255338E-05   7.421688014442918E-05
   7.515041357482296E-05   7.609568941023246E-05   7.705285535193024E-05
   7.802206095904202E-05   7.900345767191576E-05   7.999719883578453E-05
   8.100343972472688E-05   8.202233756592908E-05   8.305405156425167E-05
   8.409874292710598E-05   8.515657488964286E-05   8.622771274025858E-05
   8.731232384642168E-05   8.841057768082408E-05   8.952264584786185E-05
   9.064870211044856E-05   9.178892241716616E-05   9.294348492975756E-05
   9.411257005096421E-05   9.529636045271485E-05   9.649504110466816E-05
   9.770879930311468E-05   9.893782470024250E-05   1.001823093337703E-04
   1.014424476569540E-04   1.027184365689703E-04   1.040104754456828E-04
   1.053187661707947E-04   1.066435131673934E-04   1.079849234298925E-04
   1.093432065563745E-04   1.107185747813414E-04   1.121112430088766E-04
   1.135214288462241E-04   1.149493526377899E-04   1.163952374995716E-04
   1.178593093540206E-04   1.193417969653428E-04   1.208429319752436E-04
   1.223629489391224E-04   1.239020853627223E-04   1.254605817392407E-04
   1.270386815869076E-04   1.286366314870346E-04   1.302546811225448E-04
   1.318930833169855E-04   1.335520940740331E-04   1.352319726174934E-04
   1.369329814318070E-04   1.386553863030616E-04   1.403994563605226E-04
   1.421654641186849E-04   1.439536855198535E-04   1.457643999772607E-04
   1.475978904187243E-04   1.494544433308561E-04   1.513343488038258E-04
   1.532379005766881E-04   1.551653960832805E-04   1.571171364986975E-04
   1.590934267863496E-04   1.610945757456152E-04   1.631208960600903E-04
   1.651727043464470E-04   1.672503212039044E-04   1.693540712643233E-04
   1.714842832429308E-04   1.736412899896823E-04   1.758254285412708E-04
   1.780370401737884E-04   1.802764704560524E-04   1.825440693036005E-04
   1.848401910333659E-04   1.871651944190408E-04   1.895194427471341E-04
   1.919033038737370E-04   1.943171502820005E-04   1.967613591403366E-04
   1.992363123613528E-04   2.017423966615248E-04   2.042800036216232E-04
   2.068495297478985E-04   2.094513765340352E-04   2.120859505238878E-04
   2.147536633750020E-04   2.174549319229382E-04   2.201901782464029E-04
   2.229598297331987E-04   2.257643191470058E-04   2.286040846950008E-04
   2.314795700963280E-04   2.343912246514316E-04   2.373395033122594E-04
   2.403248667533509E-04   2.433477814438174E-04   2.464087197202294E-04
   2.495081598604201E-04   2.526465861582171E-04   2.558244889991150E-04
   2.590423649368979E-04   2.623007167712281E-04   2.656000536262087E-04
   2.689408910299357E-04   2.723237509950507E-04   2.757491621003059E-04
   2.792176595731552E-04   2.827297853733855E-04   2.862860882777983E-04
   2.898871239659584E-04   2.935334551070182E-04   2.972256514476369E-04
   3.009642899010045E-04   3.047499546369855E-04   3.085832371733974E-04
   3.124647364684352E-04   3.163950590142605E-04   3.203748189317676E-04
   3.244046380665401E-04   3.284851460860171E-04   3.326169805778784E-04
   3.368007871496694E-04   3.410372195296791E-04   3.453269396690856E-04
   3.496706178453888E-04   3.540689327671408E-04   3.585225716799965E-04
   3.630322304740970E-04   3.675986137928035E-04   3.722224351428008E-04
   3.769044170055815E-04   3.816452909503373E-04   3.864457977482675E-04
   3.913066874883257E-04   3.962287196944238E-04   4.012126634441078E-04
   4.062592974887284E-04   4.113694103751226E-04   4.165438005688251E-04
   4.217832765788318E-04   4.270886570839287E-04   4.324607710606136E-04
   4.379004579126250E-04   4.434085676021003E-04   4.489859607823854E-04
   4.546335089325119E-04   4.603520944933682E-04   4.661426110055826E-04
   4.720059632491407E-04   4.779430673847606E-04   4.839548510970421E-04
   4.900422537394212E-04   4.962062264809459E-04   5.024477324548971E-04
   5.087677469092827E-04   5.151672573592190E-04   5.216472637412336E-04
   5.282087785695071E-04   5.348528270940814E-04   5.415804474610555E-04
   5.483926908747995E-04   5.552906217622063E-04   5.622753179390108E-04
   5.693478707782016E-04   5.765093853805484E-04   5.837609807472786E-04
   5.911037899549215E-04   5.985389603323548E-04   6.060676536400770E-04
   6.136910462517345E-04   6.214103293379334E-04   6.292267090523603E-04
   6.371414067202481E-04   6.451556590292104E-04   6.532707182224752E-04
   6.614878522945522E-04   6.698083451893576E-04   6.782334970008344E-04
   6.867646241760944E-04   6.954030597211152E-04   7.041501534090262E-04
   7.130072719910121E-04   7.219757994098708E-04   7.310571370162587E-04
   7.402527037876523E-04   7.495639365500690E-04   7.589922902025714E-04
   7.685392379445994E-04   7.782062715061618E-04   7.879949013809194E-04
   7.979066570622064E-04   8.079430872820132E-04   8.181057602529803E-04
   8.283962639134364E-04   8.388162061755139E-04   8.493672151763915E-04
   8.600509395326915E-04   8.708690485980802E-04   8.818232327241098E-04
   8.929152035243352E-04   9.041466941417620E-04   9.155194595196491E-04
   9.270352766757244E-04   9.386959449798488E-04   9.505032864351676E-04
   9.624591459628062E-04   9.745653916901400E-04   9.868239152426934E-04
   9.992366320397130E-04   1.011805481593451E-03   1.024532427812223E-03
   1.037419459307267E-03   1.050468589703475E-03   1.063681857954018E-03
   1.077061328658945E-03   1.090609092387773E-03   1.104327266006148E-03
   1.118217993006607E-03   1.132283443843506E-03   1.146525816272154E-03
   1.160947335692220E-03   1.175550255495453E-03   1.190336857417783E-03
   1.205309451895844E-03   1.220470378427984E-03   1.235822005939820E-03
   1.251366733154384E-03   1.267106988966928E-03   1.283045232824448E-03
   1.299183955109972E-03   1.315525677531693E-03   1.332072953516985E-03
   1.348828368611388E-03   1.365794540882600E-03   1.382974121329554E-03
   1.400369794296649E-03   1.417984277893178E-03   1.435820324418039E-03
   1.453880720789789E-03   1.472168288982106E-03   1.490685886464726E-03
   1.509436406649930E-03   1.528422779344645E-03   1.547647971208234E-03
   1.567114986216038E-03   1.586826866128758E-03   1.606786690967736E-03
   1.626997579496209E-03   1.647462689706632E-03   1.668185219314110E-03
   1.689168406256055E-03   1.710415529198118E-03   1.731929908046484E-03
   1.753714904466622E-03   1.775773922408544E-03   1.798110408638682E-03
   1.820727853278454E-03   1.843629790349600E-03   1.866819798326383E-03
   1.890301500694728E-03   1.914078566518405E-03   1.938154711012324E-03
   1.962533696123044E-03   1.987219331116590E-03   2.012215473173653E-03
   2.037526027992282E-03   2.063154950398164E-03   2.089106244962567E-03
   2.115383966628066E-03   2.141992221342132E-03   2.168935166698699E-03
   2.196217012587797E-03   2.223842021853348E-03   2.251814510959258E-03
   2.280138850663856E-03   2.308819466702849E-03   2.337860840480844E-03
   2.367267509771579E-03   2.397044069426959E-03   2.427195172095012E-03
   2.457725528946870E-03   2.488639910412909E-03   2.519943146928125E-03
   2.551640129686915E-03   2.583735811407320E-03   2.616235207104908E-03
   2.649143394876379E-03   2.682465516693023E-03   2.716206779204169E-03
   2.750372454550732E-03   2.784967881188993E-03   2.819998464724752E-03
   2.855469678757955E-03   2.891387065737964E-03   2.927756237829566E-03
   2.964582877789895E-03   3.001872739856370E-03   3.039631650645804E-03
   3.077865510064831E-03   3.116580292231772E-03   3.155782046410105E-03
   3.195476897953678E-03   3.235671049263805E-03   3.276370780758403E-03
   3.317582451853324E-03   3.359312501956019E-03   3.401567451471721E-03
   3.444353902822256E-03   3.487678541477702E-03   3.531548137000990E-03
   3.575969544105673E-03   3.620949703726992E-03   3.666495644106395E-03
   3.712614481889735E-03   3.759313423239243E-03   3.806599764959513E-03
   3.854480895637647E-03   3.902964296797726E-03   3.952057544069822E-03
   4.001768308373703E-03   4.052104357117428E-03   4.103073555411024E-03
   4.154683867295419E-03   4.206943356986850E-03   4.259860190136903E-03
   4.313442635108417E-03   4.367699064267435E-03   4.422637955291397E-03
   4.478267892493800E-03   4.534597568165512E-03   4.591635783932960E-03
   4.649391452133405E-03   4.707873597207504E-03   4.767091357109410E-03
   4.827053984734588E-03   4.887770849365599E-03   4.949251438136069E-03
   5.011505357513078E-03   5.074542334798186E-03   5.138372219647342E-03
   5.203004985609920E-03   5.268450731687092E-03   5.334719683909838E-03
   5.401822196936766E-03   5.469768755672058E-03   5.538569976903756E-03
   5.608236610962652E-03   5.678779543402058E-03   5.750209796698685E-03
   5.822538531974941E-03   5.895777050742865E-03   5.969936796670018E-03
   6.045029357367582E-03   6.121066466200942E-03   6.198060004123052E-03
   6.276022001530860E-03   6.354964640145070E-03   6.434900254913580E-03
   6.515841335938825E-03   6.597800530429394E-03   6.680790644676173E-03
   6.764824646053356E-03   6.849915665044626E-03   6.936076997294822E-03
   7.023322105687404E-03   7.111664622448059E-03   7.201118351274767E-03
   7.291697269494649E-03   7.383415530247963E-03   7.476287464699553E-03
   7.570327584278131E-03   7.665550582943700E-03   7.761971339483539E-03
   7.859604919837025E-03   7.958466579449727E-03   8.058571765657096E-03
   8.159936120098138E-03   8.262575481159462E-03   8.366505886450061E-03
   8.471743575307203E-03   8.578304991333888E-03   8.686206784968164E-03
   8.795465816084815E-03   8.906099156629743E-03   9.018124093287495E-03
   9.131558130182340E-03   9.246418991613324E-03   9.362724624823734E-03
   9.480493202805383E-03   9.599743127138183E-03   9.720493030865430E-03
   9.842761781405245E-03   9.966568483498660E-03   1.009193248219476E-02
   1.021887336587340E-02   1.034741096930592E-02   1.047756537675436E-02
   1.060935692510970E-02   1.074280620706948E-02   1.087793407435553E-02
   1.101476164097203E-02   1.115331028650463E-02   1.129360165946109E-02
   1.143565768065385E-02   1.157950054662524E-02   1.172515273311571E-02
   1.187263699857575E-02   1.202197638772187E-02   1.217319423513748E-02
   1.232631416891889E-02   1.248136011436727E-02   1.263835629772705E-02
   1.279732724997128E-02   1.295829781063468E-02   1.312129313169486E-02
   1.328633868150234E-02   1.345346024876007E-02   1.362268394655295E-02
   1.379403621642805E-02   1.396754383252614E-02   1.414323390576526E-02
   1.432113388807679E-02   1.450127157669489E-02   1.468367511849993E-02
   1.486837301441640E-02   1.505539412386631E-02   1.524476766927852E-02
   1.543652324065477E-02   1.563069080019322E-02   1.582730068697009E-02
   1.602638362168019E-02   1.622797071143711E-02   1.643209345463376E-02
   1.663878374586404E-02   1.684807388090649E-02   1.705999656177050E-02
   1.727458490180612E-02   1.749187243087806E-02   1.771189310060482E-02
   1.793468128966368E-02   1.816027180916243E-02   1.838869990807873E-02
   1.862000127876777E-02   1.885421206253930E-02   1.909136885530479E-02
   1.933150871329562E-02   1.957466915885316E-02   1.982088818629174E-02
   2.007020426783535E-02   2.032265635962895E-02   2.057828390782551E-02
   2.083712685474950E-02   2.109922564513802E-02   2.136462123246030E-02
   2.163335508531681E-02   2.190546919391880E-02   2.218100607664937E-02
   2.246000878670702E-02   2.274252091883284E-02   2.302858661612224E-02
   2.331825057692244E-02   2.361155806181663E-02   2.390855490069606E-02
   2.420928749992106E-02   2.451380284957210E-02   2.482214853079211E-02
   2.513437272322111E-02   2.545052421252439E-02   2.577065239801537E-02
   2.609480730037434E-02   2.642303956946429E-02   2.675540049224506E-02
   2.709194200078703E-02   2.743271668038560E-02   2.777777777777779E-02
   2.812717920946208E-02   2.848097557012304E-02   2.883922214116182E-02
   2.920197489933402E-02   2.956929052549610E-02   2.994122641346200E-02
   3.031784067897090E-02   3.069919216876800E-02   3.108534046979947E-02
   3.147634591852297E-02   3.187226961033535E-02   3.227317340911898E-02
   3.267911995690808E-02   3.309017268367662E-02   3.350639581724948E-02
   3.392785439333806E-02   3.435461426570237E-02   3.478674211644069E-02
   3.522430546640889E-02   3.566737268577061E-02   3.611601300468032E-02
   3.657029652410062E-02   3.703029422675565E-02   3.749607798822233E-02
   3.796772058816103E-02   3.844529572168755E-02   3.892887801088816E-02
   3.941854301647938E-02   3.991436724961459E-02   4.041642818383894E-02
   4.092480426719489E-02   4.143957493447975E-02   4.196082061965759E-02
   4.248862276842721E-02   4.302306385094816E-02   4.356422737472693E-02
   4.411219789766511E-02   4.466706104127176E-02   4.522890350404196E-02
   4.579781307500358E-02   4.637387864743454E-02   4.695719023275256E-02
   4.754783897457959E-02   4.814591716298322E-02   4.875151824889720E-02
   4.936473685872331E-02   4.998566880911693E-02   5.061441112195861E-02
   5.125106203951391E-02   5.189572103978398E-02   5.254848885204918E-02
   5.320946747260825E-02   5.387876018071541E-02   5.455647155471800E-02
   5.524270748839702E-02   5.593757520751327E-02   5.664118328656156E-02
   5.735364166573576E-02   5.807506166810713E-02   5.880555601701877E-02
   5.954523885369889E-02   6.029422575509565E-02   6.105263375193618E-02
   6.182058134701302E-02   6.259818853370026E-02   6.338557681470290E-02
   6.418286922104181E-02   6.499019033127756E-02   6.580766629097615E-02
   6.663542483241941E-02   6.747359529456359E-02   6.832230864324863E-02
   6.918169749166199E-02   7.005189612105971E-02   7.093304050174801E-02
   7.182526831432909E-02   7.272871897121395E-02   7.364353363840577E-02
   7.456985525755754E-02   7.550782856830685E-02   7.645760013089181E-02
   7.741931834905143E-02   7.839313349321393E-02   7.937919772397681E-02
   8.037766511588228E-02   8.138869168149174E-02   8.241243539576301E-02
   8.344905622073430E-02   8.449871613051847E-02   8.556157913661203E-02
   8.663781131352205E-02   8.772758082471581E-02   8.883105794889659E-02
   8.994841510661006E-02   9.107982688718542E-02   9.222547007601525E-02
   9.338552368217862E-02   9.456016896641169E-02   9.574958946942989E-02
   9.695397104060674E-02   9.817350186701308E-02   9.940837250282168E-02
   1.006587758990818E-01   1.019249074338680E-01   1.032069649428085E-01
   1.045051487499976E-01   1.058196616992962E-01   1.071507091860271E-01
   1.084984991890682E-01   1.098632423033494E-01   1.112451517727591E-01
   1.126444435234632E-01   1.140613361976449E-01   1.154960511876669E-01
   1.169488126706656E-01   1.184198476435783E-01   1.199093859586124E-01
   1.214176603591600E-01   1.229449065161649E-01   1.244913630649463E-01
   1.260572716424863E-01   1.276428769251859E-01   1.292484266670965E-01
   1.308741717386318E-01   1.325203661657668E-01   1.341872671697300E-01
   1.358751352071946E-01   1.375842340109755E-01   1.393148306312378E-01
   1.410671954772245E-01   1.428416023595080E-01   1.446383285327736E-01
   1.464576547391415E-01   1.482998652520328E-01   1.501652479205881E-01
   1.520540942146445E-01   1.539666992702785E-01   1.559033619359211E-01
   1.578643848190541E-01   1.598500743334926E-01   1.618607407472632E-01
   1.638966982310839E-01   1.659582649074535E-01   1.680457629003597E-01
   1.701595183856108E-01   1.722998616418019E-01   1.744671271019213E-01
   1.766616534056066E-01   1.788837834520573E-01   1.811338644536143E-01
   1.834122479900119E-01   1.857192900633131E-01   1.880553511535356E-01
   1.904207962749773E-01   1.928159950332511E-01   1.952413216830360E-01
   1.976971551865555E-01   2.001838792727909E-01   2.027018824974399E-01
   2.052515583036293E-01   2.078333050833912E-01   2.104475262399125E-01
   2.130946302505676E-01   2.157750307307438E-01   2.184891464984693E-01
   2.212374016398549E-01   2.240202255753576E-01   2.268380531268793E-01
   2.296913245857076E-01   2.325804857813130E-01   2.355059881510105E-01
   2.384682888104971E-01   2.414678506252780E-01   2.445051422829893E-01
   2.475806383666317E-01   2.506948194287257E-01   2.538481720663980E-01
   2.570411889974138E-01   2.602743691371649E-01   2.635482176766258E-01
   2.668632461612919E-01   2.702199725711080E-01   2.736189214014053E-01
   2.770606237448535E-01   2.805456173744461E-01   2.840744468275279E-01
   2.876476634908804E-01   2.912658256868772E-01   2.949294987607225E-01
   2.986392551687878E-01   3.023956745680596E-01   3.061993439067112E-01
   3.100508575158159E-01   3.139508172022108E-01   3.178998323425313E-01
   3.218985199784277E-01   3.259475049129781E-01   3.300474198083168E-01
   3.341989052844872E-01   3.384026100195411E-01   3.426591908508961E-01
   3.469693128779670E-01   3.513336495660898E-01   3.557528828517512E-01
   3.602277032491428E-01   3.647588099580562E-01   3.693469109731330E-01
   3.739927231944916E-01   3.786969725397434E-01   3.834603940574195E-01
   3.882837320418233E-01   3.931677401493280E-01   3.981131815161371E-01
   4.031208288775257E-01   4.081914646885819E-01   4.133258812464679E-01
   4.185248808142165E-01   4.237892757460879E-01   4.291198886145007E-01
   4.345175523385605E-01   4.399831103142062E-01   4.455174165459910E-01
   4.511213357805234E-01   4.567957436415850E-01   4.625415267669487E-01
   4.683595829469178E-01   4.742508212646073E-01   4.802161622379903E-01
   4.862565379637303E-01   4.923728922628236E-01   4.985661808280736E-01
   5.048373713734186E-01   5.111874437851404E-01   5.176173902749727E-01
   5.241282155351359E-01   5.307209368953238E-01   5.373965844816616E-01
   5.441562013776667E-01   5.510008437872315E-01   5.579315811996577E-01
   5.649494965567672E-01   5.720556864221121E-01   5.792512611523172E-01
   5.865373450705730E-01   5.939150766423154E-01   6.013856086531130E-01
   6.089501083887909E-01   6.166097578178236E-01   6.243657537760173E-01
   6.322193081535205E-01   6.401716480841830E-01   6.482240161372979E-01
   6.563776705117563E-01   6.646338852326431E-01   6.729939503503053E-01
   6.814591721419268E-01   6.900308733156346E-01   6.987103932171771E-01
   7.074990880391971E-01   7.163983310331409E-01   7.254095127238327E-01
   7.345340411267445E-01   7.437733419680037E-01   7.531288589071641E-01
   7.626020537627809E-01   7.721944067408244E-01   7.819074166659626E-01
   7.917426012157581E-01   8.017014971578065E-01   8.117856605898598E-01
   8.219966671829714E-01   8.323361124276951E-01   8.428056118833871E-01
   8.534068014306371E-01   8.641413375268798E-01   8.750108974652209E-01
   8.860171796365143E-01   8.971619037947415E-01   9.084468113257270E-01
   9.198736655192312E-01   9.314442518444709E-01   9.431603782290990E-01
   9.550238753417000E-01   9.670365968778347E-01   9.792004198496822E-01
   9.915172448793305E-01   1.003988996495749E+00   1.016617623435500E+00
   1.029405098947239E+00   1.042353421100028E+00   1.055464613095549E+00
   1.068740723584226E+00   1.082183826985333E+00   1.095796023811126E+00
   1.109579440995054E+00   1.123536232224095E+00   1.137668578275273E+00
   1.151978687356410E+00   1.166468795451167E+00   1.181141166668411E+00
   1.195998093595998E+00   1.211041897658987E+00   1.226274929482368E+00
   1.241699569258357E+00   1.257318227118300E+00   1.273133343509264E+00
   1.289147389575361E+00   1.305362867543870E+00   1.321782311116214E+00
   1.338408285863857E+00   1.355243389629179E+00   1.372290252931395E+00
   1.389551539377577E+00   1.407029946078852E+00   1.424728204071826E+00
   1.442649078745319E+00   1.460795370272458E+00   1.479169914048212E+00
   1.497775581132432E+00   1.516615278698452E+00   1.535691950487345E+00
   1.555008577267893E+00   1.574568177302328E+00   1.594373806817951E+00
   1.614428560484668E+00   1.634735571898539E+00   1.655298014071416E+00
   1.676119099926722E+00   1.697202082801483E+00   1.718550256954665E+00
   1.740166958081913E+00   1.762055563836760E+00   1.784219494358386E+00
   1.806662212806028E+00   1.829387225900104E+00   1.852398084470145E+00
   1.875698384009615E+00   1.899291765237726E+00   1.923181914668296E+00
   1.947372565185776E+00   1.971867496628526E+00   1.996670536379419E+00
   2.021785559963880E+00   2.047216491655440E+00   2.072967305088916E+00
   2.099042023881297E+00   2.125444722260442E+00   2.152179525701692E+00
   2.179250611572476E+00   2.206662209785039E+00   2.234418603457370E+00
   2.262524129582448E+00   2.290983179705917E+00   2.319800200612258E+00
   2.348979695019613E+00   2.378526222283352E+00   2.408444399108470E+00
   2.438738900270968E+00   2.469414459348287E+00   2.500475869458942E+00
   2.531927984011457E+00   2.563775717462719E+00   2.596024046085879E+00
   2.628678008747893E+00   2.661742707696860E+00   2.695223309359262E+00
   2.729125045147224E+00   2.763453212275941E+00   2.798213174591365E+00
   2.833410363408327E+00   2.869050278359190E+00   2.905138488253173E+00
   2.941680631946498E+00   2.978682419223460E+00   3.016149631688603E+00
   3.054088123670100E+00   3.092503823134510E+00   3.131402732613034E+00
   3.170790930139418E+00   3.210674570199660E+00   3.251059884693664E+00
   3.291953183908982E+00   3.333360857506818E+00   3.375289375520416E+00
   3.417745289366018E+00   3.460735232866540E+00   3.504265923288116E+00
   3.548344162389692E+00   3.592976837485805E+00   3.638170922522742E+00
   3.683933479168241E+00   3.730271657914876E+00   3.777192699197360E+00
   3.824703934523853E+00   3.872812787621536E+00   3.921526775596583E+00
   3.970853510108723E+00   4.020800698560583E+00   4.071376145301977E+00
   4.122587752849354E+00   4.174443523120583E+00   4.226951558685268E+00
   4.280120064030799E+00   4.333957346844309E+00   4.388471819310767E+00
   4.443671999427408E+00   4.499566512334677E+00   4.556164091663940E+00
   4.613473580902114E+00   4.671503934773488E+00   4.730264220638920E+00
   4.789763619912621E+00   4.850011429496786E+00   4.911017063234235E+00
   4.972790053379357E+00   5.035340052087538E+00   5.098676832923333E+00
   5.162810292387615E+00   5.227750451463902E+00   5.293507457184171E+00
   5.360091584214350E+00   5.427513236459749E+00   5.495782948690710E+00
   5.564911388188662E+00   5.634909356412918E+00   5.705787790688427E+00
   5.777557765914739E+00   5.850230496296515E+00   5.923817337095723E+00
   5.998329786405953E+00   6.073779486949005E+00   6.150178227894088E+00
   6.227537946699919E+00   6.305870730979947E+00   6.385188820391084E+00
   6.465504608546174E+00   6.546830644950517E+00   6.629179636962768E+00
   6.712564451780466E+00   6.796998118450572E+00   6.882493829905287E+00
   6.969064945023461E+00   7.056724990717973E+00   7.145487664049305E+00
   7.235366834365751E+00   7.326376545470534E+00   7.418531017816171E+00
   7.511844650726466E+00   7.606332024646404E+00   7.702007903420395E+00
   7.798887236599153E+00   7.896985161775581E+00   7.996317006950085E+00
   8.096898292925561E+00   8.198744735732570E+00   8.301872249085015E+00
   8.406296946866663E+00   8.512035145649008E+00   8.619103367240733E+00
   8.727518341269292E+00   8.837297007794946E+00   8.948456519957681E+00
   9.061014246657445E+00   9.174987775268026E+00   9.290394914385148E+00
   9.407253696609098E+00   9.525582381362344E+00   9.645399457742633E+00
   9.766723647411911E+00   9.889573907521651E+00   1.001396943367494E+01
   1.013992966292580E+01   1.026747427681636E+01   1.039662320445201E+01
   1.052739662561544E+01   1.065981497391978E+01   1.079389894000136E+01
   1.092966947475267E+01   1.106714779259600E+01   1.120635537479821E+01
   1.134731397282724E+01   1.149004561175080E+01   1.163457259367789E+01
   1.178091750124346E+01   1.192910320113706E+01   1.207915284767580E+01
   1.223108988642219E+01   1.238493805784770E+01   1.254072140104210E+01
   1.269846425746970E+01   1.285819127477277E+01   1.301992741062269E+01
   1.318369793661979E+01   1.334952844224193E+01   1.351744483884299E+01
   1.368747336370158E+01   1.385964058412061E+01   1.403397340157859E+01
   1.421049905593289E+01   1.438924512967618E+01   1.457023955224612E+01
   1.475351060438948E+01   1.493908692258103E+01   1.512699750349804E+01
   1.531727170855109E+01   1.550993926847183E+01   1.570503028795848E+01
   1.590257525037976E+01   1.610260502253796E+01   1.630515085949193E+01
   1.651024440944078E+01   1.671791771866895E+01   1.692820323655355E+01
   1.714113382063455E+01   1.735674274174893E+01   1.757506368922928E+01
   1.779613077616780E+01   1.801997854474662E+01   1.824664197163499E+01
   1.847615647345451E+01   1.870855791231304E+01   1.894388260140821E+01
   1.918216731070149E+01   1.942344927266349E+01   1.966776618809167E+01
   1.991515623200111E+01   2.016565805958948E+01   2.041931081227704E+01
   2.067615412382242E+01   2.093622812651561E+01   2.119957345744866E+01
   2.146623126486528E+01   2.173624321459044E+01   2.200965149654061E+01
   2.228649883131611E+01   2.256682847687622E+01   2.285068423529840E+01
   2.313811045962244E+01   2.342915206078065E+01   2.372385451461534E+01
   2.402226386898450E+01   2.432442675095683E+01   2.463039037409746E+01
   2.494020254584495E+01   2.525391167498147E+01   2.557156677919669E+01
   2.589321749274690E+01   2.621891407421053E+01   2.654870741434105E+01
   2.688264904401882E+01   2.722079114230290E+01   2.756318654458406E+01
   2.790988875084058E+01   2.826095193399753E+01   2.861643094839152E+01
   2.897638133834178E+01   2.934085934682903E+01   2.970992192428370E+01
   3.008362673748434E+01   3.046203217856832E+01   3.084519737415570E+01
   3.123318219458779E+01   3.162604726328222E+01   3.202385396620524E+01
   3.242666446146350E+01   3.283454168901645E+01   3.324754938051066E+01
   3.366575206923827E+01   3.408921510022019E+01   3.451800464041658E+01