<UPF version="2.0.1">
  <PP_INFO>
    Generated using "atomic" code by A. Dal Corso  v.7.2
    Author: ADC
    Generation date: 31May2024
    Pseudopotential type: PAW
    Element: Lu
    Functional:  SLA  PW   BEEX BEEC
    Suggested minimum cutoff for wavefunctions: 175. Ry
    Suggested minimum cutoff for charge density: 701. Ry
    The Pseudo was generated with a Scalar-Relativistic Calculation
    Local Potential by smoothing AE potential with Bessel fncs, cutoff radius:   1.7000
    Valence configuration: 
    nl pn  l   occ       Rcut    Rcut US       E pseu
    5S  1  0  2.00      0.900      1.300    -4.514230
    6S  2  0  2.00      0.900      1.300    -0.358027
    5P  2  1  6.00      1.000      1.300    -2.350186
    4D  3  2 10.00      0.900      1.000   -14.177069
    5D  4  2  1.00      0.900      1.000    -0.146393
    4F  4  3 14.00      1.000      1.100    -0.751824
    Generation configuration:
    5S  1  0  2.00      0.900      1.300    -4.514272
    6S  2  0  2.00      0.900      1.300    -0.358034
    5P  2  1  6.00      1.000      1.300    -2.350210
    6P  3  1  0.00      1.000      1.300     0.300000
    4D  3  2 10.00      0.900      1.000   -14.177186
    5D  4  2  1.00      0.900      1.000    -0.146409
    4F  4  3 14.00      1.000      1.100    -0.751925
    4F  4  3  0.00      1.000      1.100     1.000000
    Pseudization used: troullier-martins
    <PP_INPUTFILE>
@input
title='Lu',
zed=71.0,
rel=1,
config='[Xe] 4f14.0 5d1.0 6s2. 6p0.',
iswitch=3,
dft='SLA-PW-BEEX-BEEC'
/
@inputp
lpaw=.true.,
pseudotype=3,
file_pseudopw='Lu.beef-spdfn-kjpaw_psl.1.0.0.UPF',
author='ADC',
lloc=-1,
rcloc=1.7,
which_augfun='PSQ',
rmatch_augfun_nc=.true.,
nlcc=.true.,
new_core_ps=.true.,
rcore=1.2,
tm=.true.
/
8
5S  1  0  2.00  0.00  0.90  1.30  0.0
6S  2  0  2.00  0.00  0.90  1.30  0.0
5P  2  1  6.00  0.00  1.00  1.30  0.0
6P  3  1  0.00  0.30  1.00  1.30  0.0
4D  3  2 10.00  0.00  0.90  1.00  0.0
5D  4  2  1.00  0.00  0.90  1.00  0.0
4F  4  3 14.00  0.00  1.00  1.10  0.0
4F  4  3  0.00  1.00  1.00  1.10  0.0
    </PP_INPUTFILE>
  </PP_INFO>
    <!-- END OF HUMAN READABLE SECTION -->
  <PP_HEADER generated="Generated using 'atomic' code by A. Dal Corso  v.7.2" author="ADC" date="31May2024" comment="" element="Lu" pseudo_type="PAW" relativistic="scalar" is_ultrasoft="true" is_paw="true" is_coulomb="false" has_so="false" has_wfc="true" has_gipaw="false" paw_as_gipaw="false" core_correction="true" functional=" SLA  PW   BEEX BEEC" z_valence="35.0000000000000" total_psenergy="-1909.56343603109" wfc_cutoff="175.264273857350" rho_cutoff="701.057095429401" l_max="3" l_max_rho="6" l_local="-1" mesh_size="1271" number_of_wfc="6" number_of_proj="8"/>
  <PP_MESH mesh="1271" dx="1.250000000000000E-002" xmin="-7.00000000000000" rmax="100.000000000000" zmesh="71.0000000000000">
    <PP_R>
   1.284340796555657E-05   1.300495815026792E-05   1.316854038614904E-05
   1.333418023325710E-05   1.350190357315521E-05   1.367173661295646E-05
   1.384370588941886E-05   1.401783827309171E-05   1.419416097251423E-05
   1.437270153846697E-05   1.455348786827658E-05   1.473654821017491E-05
   1.492191116771282E-05   1.510960570422953E-05   1.529966114737828E-05
   1.549210719370871E-05   1.568697391330709E-05   1.588429175449482E-05
   1.608409154858602E-05   1.628640451470504E-05   1.649126226466443E-05
   1.669869680790440E-05   1.690874055649438E-05   1.712142633019739E-05
   1.733678736159833E-05   1.755485730129647E-05   1.777567022316358E-05
   1.799926062966795E-05   1.822566345726546E-05   1.845491408185859E-05
   1.868704832432382E-05   1.892210245610883E-05   1.916011320489991E-05
   1.940111776036081E-05   1.964515377994365E-05   1.989225939477298E-05
   2.014247321560387E-05   2.039583433885487E-05   2.065238235271694E-05
   2.091215734333925E-05   2.117519990109257E-05   2.144155112691171E-05
   2.171125263871761E-05   2.198434657792017E-05   2.226087561600306E-05
   2.254088296119105E-05   2.282441236520150E-05   2.311150813008065E-05
   2.340221511512583E-05   2.369657874389495E-05   2.399464501130386E-05
   2.429646049081327E-05   2.460207234170591E-05   2.491152831645522E-05
   2.522487676818690E-05   2.554216665823402E-05   2.586344756378743E-05
   2.618876968564227E-05   2.651818385604194E-05   2.685174154662079E-05
   2.718949487644661E-05   2.753149662016433E-05   2.787780021624221E-05
   2.822845977532168E-05   2.858353008867231E-05   2.894306663675294E-05
   2.930712559788069E-05   2.967576385700893E-05   3.004903901461561E-05
   3.042700939570358E-05   3.080973405891388E-05   3.119727280575376E-05
   3.158968618994089E-05   3.198703552686489E-05   3.238938290316811E-05
   3.279679118644668E-05   3.320932403507370E-05   3.362704590814610E-05
   3.405002207555638E-05   3.447831862819131E-05   3.491200248825857E-05
   3.535114141974364E-05   3.579580403899800E-05   3.624605982546056E-05
   3.670197913251406E-05   3.716363319847777E-05   3.763109415773874E-05
   3.810443505202291E-05   3.858372984180801E-05   3.906905341788012E-05
   3.956048161303539E-05   4.005809121392912E-05   4.056195997307385E-05
   4.107216662098828E-05   4.158879087849925E-05   4.211191346919803E-05
   4.264161613205374E-05   4.317798163418511E-05   4.372109378379308E-05
   4.427103744325606E-05   4.482789854238967E-05   4.539176409187361E-05
   4.596272219684716E-05   4.654086207067580E-05   4.712627404889115E-05
   4.771904960330580E-05   4.831928135630612E-05   4.892706309532470E-05
   4.954248978749477E-05   5.016565759448915E-05   5.079666388754550E-05
   5.143560726268089E-05   5.208258755609763E-05   5.273770585978282E-05
   5.340106453730433E-05   5.407276723980512E-05   5.475291892219901E-05
   5.544162585957019E-05   5.613899566377874E-05   5.684513730027547E-05
   5.756016110512770E-05   5.828417880225967E-05   5.901730352090957E-05
   5.975964981330620E-05   6.051133367256816E-05   6.127247255082774E-05
   6.204318537758319E-05   6.282359257828171E-05   6.361381609313615E-05
   6.441397939617849E-05   6.522420751455275E-05   6.604462704805086E-05
   6.687536618889405E-05   6.771655474176324E-05   6.856832414408118E-05
   6.943080748655003E-05   7.030413953394672E-05   7.118845674618048E-05
   7.208389729961487E-05   7.299060110865809E-05   7.390870984762514E-05
   7.483836697287431E-05   7.577971774522283E-05   7.673290925264408E-05
   7.769809043325030E-05   7.867541209856479E-05   7.966502695708602E-05
   8.066708963814908E-05   8.168175671608657E-05   8.270918673469369E-05
   8.374954023200133E-05   8.480297976535998E-05   8.586966993683997E-05
   8.694977741895081E-05   8.804347098068396E-05   8.915092151388375E-05
   9.027230205994905E-05   9.140778783687164E-05   9.255755626661436E-05
   9.372178700283343E-05   9.490066195895024E-05   9.609436533657503E-05
   9.730308365428918E-05   9.852700577678897E-05   9.976632294439603E-05
   1.010212288029394E-04   1.022919194340126E-04   1.035785933856118E-04
   1.048814517031598E-04   1.062006979609193E-04   1.075365382938023E-04
   1.088891814295785E-04   1.102588387214898E-04   1.116457241812747E-04
   1.130500545126078E-04   1.144720491449607E-04   1.159119302678878E-04
   1.173699228657438E-04   1.188462547528386E-04   1.203411566090330E-04
   1.218548620157836E-04   1.233876074926398E-04   1.249396325342008E-04
   1.265111796475370E-04   1.281024943900819E-04   1.297138254080020E-04
   1.313454244750469E-04   1.329975465318903E-04   1.346704497259650E-04
   1.363643954517984E-04   1.380796483918567E-04   1.398164765579016E-04
   1.415751513328674E-04   1.433559475132659E-04   1.451591433521231E-04
   1.469850206024578E-04   1.488338645613050E-04   1.507059641142947E-04
   1.526016117807910E-04   1.545211037595983E-04   1.564647399752437E-04
   1.584328241248404E-04   1.604256637255405E-04   1.624435701625864E-04
   1.644868587379640E-04   1.665558487196707E-04   1.686508633916003E-04
   1.707722301040577E-04   1.729202803249077E-04   1.750953496913674E-04
   1.772977780624507E-04   1.795279095720714E-04   1.817860926828151E-04
   1.840726802403872E-04   1.863880295287455E-04   1.887325023259272E-04
   1.911064649605765E-04   1.935102883691851E-04   1.959443481540511E-04
   1.984090246419679E-04   2.009047029436515E-04   2.034317730139138E-04
   2.059906297125947E-04   2.085816728662593E-04   2.112053073306719E-04
   2.138619430540556E-04   2.165519951411469E-04   2.192758839180576E-04
   2.220340349979507E-04   2.248268793475438E-04   2.276548533544489E-04
   2.305183988953581E-04   2.334179634050881E-04   2.363539999464926E-04
   2.393269672812545E-04   2.423373299415688E-04   2.453855583027255E-04
   2.484721286566080E-04   2.515975232861134E-04   2.547622305405112E-04
   2.579667449117490E-04   2.612115671117167E-04   2.644972041504846E-04
   2.678241694155247E-04   2.711929827519286E-04   2.746041705436338E-04
   2.780582657956730E-04   2.815558082174568E-04   2.850973443071041E-04
   2.886834274368346E-04   2.923146179394330E-04   2.959914831958033E-04
   2.997145977236222E-04   3.034845432671094E-04   3.073019088879264E-04
   3.111672910572175E-04   3.150812937488113E-04   3.190445285335911E-04
   3.230576146750553E-04   3.271211792260785E-04   3.312358571268888E-04
   3.354022913042800E-04   3.396211327720686E-04   3.438930407328174E-04
   3.482186826808366E-04   3.525987345064809E-04   3.570338806017598E-04
   3.615248139672737E-04   3.660722363204978E-04   3.706768582054269E-04
   3.753393991035984E-04   3.800605875465139E-04   3.848411612294728E-04
   3.896818671268391E-04   3.945834616087581E-04   3.995467105593394E-04
   4.045723894963301E-04   4.096612836922884E-04   4.148141882972858E-04
   4.200319084631509E-04   4.253152594692747E-04   4.306650668500013E-04
   4.360821665236182E-04   4.415674049229702E-04   4.471216391277176E-04
   4.527457369982545E-04   4.584405773113159E-04   4.642070498972868E-04
   4.700460557792406E-04   4.759585073137261E-04   4.819453283333244E-04
   4.880074542910004E-04   4.941458324062681E-04   5.003614218131967E-04
   5.066551937102770E-04   5.130281315121724E-04   5.194812310033805E-04
   5.260155004938256E-04   5.326319609764097E-04   5.393316462865446E-04
   5.461156032636903E-04   5.529848919149270E-04   5.599405855805819E-04
   5.669837711019416E-04   5.741155489910736E-04   5.813370336027824E-04
   5.886493533087312E-04   5.960536506737509E-04   6.035510826343689E-04
   6.111428206795827E-04   6.188300510339074E-04   6.266139748427257E-04
   6.344958083599694E-04   6.424767831381607E-04   6.505581462208468E-04
   6.587411603374505E-04   6.670271041005765E-04   6.754172722057954E-04
   6.839129756339433E-04   6.925155418559660E-04   7.012263150403372E-04
   7.100466562630899E-04   7.189779437204848E-04   7.280215729443576E-04
   7.371789570201748E-04   7.464515268078286E-04   7.558407311652131E-04
   7.653480371746126E-04   7.749749303719328E-04   7.847229149788229E-04
   7.945935141377094E-04   8.045882701497928E-04   8.147087447160350E-04
   8.249565191811764E-04   8.353331947808275E-04   8.458403928916616E-04
   8.564797552847601E-04   8.672529443821442E-04   8.781616435165272E-04
   8.892075571943438E-04   9.003924113620788E-04   9.117179536759515E-04
   9.231859537749910E-04   9.347982035575437E-04   9.465565174612646E-04
   9.584627327466229E-04   9.705187097839800E-04   9.827263323442771E-04
   9.950875078933747E-04   1.007604167890102E-03   1.020278268088049E-03
   1.033111788841157E-03   1.046106735413154E-03   1.059265138290879E-03
   1.072589053501554E-03   1.086080562934039E-03   1.099741774664129E-03
   1.113574823283953E-03   1.127581870235501E-03   1.141765104148356E-03
   1.156126741181674E-03   1.170669025370459E-03   1.185394228976203E-03
   1.200304652841927E-03   1.215402626751698E-03   1.230690509794654E-03
   1.246170690733624E-03   1.261845588378376E-03   1.277717651963557E-03
   1.293789361531393E-03   1.310063228319205E-03   1.326541795151784E-03
   1.343227636838728E-03   1.360123360576744E-03   1.377231606357044E-03
   1.394555047377836E-03   1.412096390462025E-03   1.429858376480156E-03
   1.447843780778682E-03   1.466055413613615E-03   1.484496120589639E-03
   1.503168783104735E-03   1.522076318800413E-03   1.541221682017591E-03
   1.560607864258224E-03   1.580237894652729E-03   1.600114840433293E-03
   1.620241807413133E-03   1.640621940471788E-03   1.661258424046514E-03
   1.682154482629855E-03   1.703313381273475E-03   1.724738426098337E-03
   1.746432964811285E-03   1.768400387228130E-03   1.790644125803319E-03
   1.813167656166257E-03   1.835974497664390E-03   1.859068213913102E-03
   1.882452413352542E-03   1.906130749811447E-03   1.930106923078063E-03
   1.954384679478244E-03   1.978967812460819E-03   2.003860163190332E-03
   2.029065621147230E-03   2.054588124735597E-03   2.080431661898547E-03
   2.106600270741339E-03   2.133098040162346E-03   2.159929110491951E-03
   2.187097674139479E-03   2.214607976248277E-03   2.242464315359018E-03
   2.270671044081363E-03   2.299232569774063E-03   2.328153355233614E-03
   2.357437919391585E-03   2.387090838020706E-03   2.417116744449842E-03
   2.447520330287960E-03   2.478306346157205E-03   2.509479602435190E-03
   2.541044970006632E-03   2.573007381024432E-03   2.605371829680343E-03
   2.638143372985311E-03   2.671327131559652E-03   2.704928290433157E-03
   2.738952099855262E-03   2.773403876115410E-03   2.808289002373736E-03
   2.843612929502190E-03   2.879381176936255E-03   2.915599333537361E-03
   2.952273058466167E-03   2.989408082066805E-03   3.027010206762263E-03
   3.065085307961027E-03   3.103639334975125E-03   3.142678311949716E-03
   3.182208338804379E-03   3.222235592186232E-03   3.262766326435055E-03
   3.303806874560531E-03   3.345363649231806E-03   3.387443143779468E-03
   3.430051933210152E-03   3.473196675233895E-03   3.516884111304417E-03
   3.561121067672486E-03   3.605914456452537E-03   3.651271276702699E-03
   3.697198615518413E-03   3.743703649139812E-03   3.790793644073013E-03
   3.838475958225531E-03   3.886758042055961E-03   3.935647439738133E-03
   3.985151790339900E-03   4.035278829016763E-03   4.086036388220499E-03
   4.137432398922999E-03   4.189474891855502E-03   4.242171998763411E-03
   4.295531953676892E-03   4.349563094197464E-03   4.404273862800759E-03
   4.459672808155681E-03   4.515768586460151E-03   4.572569962793659E-03
   4.630085812486820E-03   4.688325122508164E-03   4.747296992868372E-03
   4.807010638042166E-03   4.867475388408093E-03   4.928700691706416E-03
   4.990696114515336E-03   5.053471343745799E-03   5.117036188155090E-03
   5.181400579879471E-03   5.246574575986100E-03   5.312568360044466E-03
   5.379392243717592E-03   5.447056668373258E-03   5.515572206715481E-03
   5.584949564436521E-03   5.655199581889673E-03   5.726333235783088E-03
   5.798361640894910E-03   5.871296051809980E-03   5.945147864678388E-03
   6.019928618996152E-03   6.095649999408273E-03   6.172323837534499E-03
   6.249962113818028E-03   6.328576959397490E-03   6.408180658002446E-03
   6.488785647872760E-03   6.570404523702091E-03   6.653050038605843E-03
   6.736735106113862E-03   6.821472802188206E-03   6.907276367266286E-03
   6.994159208329714E-03   7.082134900999171E-03   7.171217191655625E-03
   7.261419999588230E-03   7.352757419169242E-03   7.445243722056303E-03
   7.538893359422399E-03   7.633720964213906E-03   7.729741353436994E-03
   7.826969530472839E-03   7.925420687421914E-03   8.025110207477792E-03
   8.126053667330801E-03   8.228266839601915E-03   8.331765695307256E-03
   8.436566406353601E-03   8.542685348065262E-03   8.650139101742789E-03
   8.758944457253807E-03   8.869118415656482E-03   8.980678191855966E-03
   9.093641217294257E-03   9.208025142673909E-03   9.323847840715976E-03
   9.441127408952669E-03   9.559882172555136E-03   9.680130687196795E-03
   9.801891741952708E-03   9.925184362235403E-03   1.005002781276764E-02
   1.017644160059257E-02   1.030444547812172E-02   1.043405944622138E-02
   1.056530375733778E-02   1.069819891866153E-02   1.083276569533198E-02
   1.096902511368176E-02   1.110699846452221E-02   1.124670730647010E-02
   1.138817346931624E-02   1.153141905743637E-02   1.167646645324508E-02
   1.182333832069307E-02   1.197205760880843E-02   1.212264755528251E-02
   1.227513169010082E-02   1.242953383921966E-02   1.258587812828896E-02
   1.274418898642197E-02   1.290449115001237E-02   1.306680966659934E-02
   1.323116989878135E-02   1.339759752817908E-02   1.356611855944820E-02
   1.373675932434272E-02   1.390954648582932E-02   1.408450704225353E-02
   1.426166833155824E-02   1.444105803555534E-02   1.462270418425106E-02
   1.480663516022570E-02   1.499287970306845E-02   1.518146691386806E-02
   1.537242625975989E-02   1.556578757853026E-02   1.576158108327860E-02
   1.595983736713840E-02   1.616058740805736E-02   1.636386257363780E-02
   1.656969462603790E-02   1.677811572693463E-02   1.698915844254903E-02
   1.720285574873479E-02   1.741924103613078E-02   1.763834811537838E-02
   1.786021122240451E-02   1.808486502377101E-02   1.831234462209143E-02
   1.854268556151581E-02   1.877592383328455E-02   1.901209588135216E-02
   1.925123860808165E-02   1.949338938001059E-02   1.973858603368977E-02
   1.998686688159518E-02   2.023827071811444E-02   2.049283682560848E-02
   2.075060498054952E-02   2.101161545973621E-02   2.127590904658695E-02
   2.154352703751239E-02   2.181451124836808E-02   2.208890402098830E-02
   2.236674822980203E-02   2.264808728853216E-02   2.293296515697902E-02
   2.322142634788914E-02   2.351351593391047E-02   2.380927955463510E-02
   2.410876342373049E-02   2.441201433616050E-02   2.471907967549717E-02
   2.503000742132450E-02   2.534484615673534E-02   2.566364507592267E-02
   2.598645399186621E-02   2.631332334411582E-02   2.664430420667282E-02
   2.697944829597038E-02   2.731880797895429E-02   2.766243628126546E-02
   2.801038689552525E-02   2.836271418972503E-02   2.871947321572136E-02
   2.908071971783785E-02   2.944651014157544E-02   2.981690164243205E-02
   3.019195209483324E-02   3.057172010117526E-02   3.095626500098173E-02
   3.134564688017562E-02   3.173992658046774E-02   3.213916570886344E-02
   3.254342664728881E-02   3.295277256233792E-02   3.336726741514284E-02
   3.378697597136759E-02   3.421196381132802E-02   3.464229734023874E-02
   3.507804379858918E-02   3.551927127264999E-02   3.596604870511166E-02
   3.641844590585700E-02   3.687653356286905E-02   3.734038325327617E-02
   3.781006745453622E-02   3.828565955576121E-02   3.876723386918458E-02
   3.925486564177256E-02   3.974863106698171E-02   4.024860729666430E-02
   4.075487245312341E-02   4.126750564131976E-02   4.178658696123195E-02
   4.231219752037232E-02   4.284441944646007E-02   4.338333590025398E-02
   4.392903108854639E-02   4.448159027732069E-02   4.504109980507433E-02
   4.560764709630933E-02   4.618132067519261E-02   4.676221017938802E-02
   4.735040637406240E-02   4.794600116606790E-02   4.854908761830248E-02
   4.915975996425131E-02   4.977811362271086E-02   5.040424521269832E-02
   5.103825256854851E-02   5.168023475520065E-02   5.233029208367754E-02
   5.298852612675932E-02   5.365503973485440E-02   5.432993705207009E-02
   5.501332353248527E-02   5.570530595662787E-02   5.640599244815953E-02
   5.711549249077009E-02   5.783391694528471E-02   5.856137806698605E-02
   5.929798952315440E-02   6.004386641082844E-02   6.079912527478938E-02
   6.156388412577127E-02   6.233826245890051E-02   6.312238127236715E-02
   6.391636308633106E-02   6.472033196206607E-02   6.553441352134469E-02
   6.635873496606681E-02   6.719342509813529E-02   6.803861433958142E-02
   6.889443475294377E-02   6.976102006190306E-02   7.063850567217693E-02
   7.152702869267723E-02   7.242672795693363E-02   7.333774404478664E-02
   7.426021930435343E-02   7.519429787427012E-02   7.614012570621366E-02
   7.709785058770706E-02   7.806762216521163E-02   7.904959196750930E-02
   8.004391342937953E-02   8.105074191557371E-02   8.207023474509122E-02
   8.310255121576084E-02   8.414785262913137E-02   8.520630231567534E-02
   8.627806566030971E-02   8.736331012823757E-02   8.846220529111504E-02
   8.957492285354698E-02   9.070163667991636E-02   9.184252282155092E-02
   9.299775954423141E-02   9.416752735604610E-02   9.535200903559549E-02
   9.655138966055185E-02   9.776585663657800E-02   9.899559972660980E-02
   1.002408110805070E-01   1.015016852650771E-01   1.027784192944766E-01
   1.040712126609951E-01   1.053802673662265E-01   1.067057879526317E-01
   1.080479815354991E-01   1.094070578353067E-01   1.107832292104915E-01
   1.121767106906307E-01   1.135877200100405E-01   1.150164776417980E-01
   1.164632068321898E-01   1.179281336355953E-01   1.194114869498081E-01
   1.209134985518014E-01   1.224344031339438E-01   1.239744383406706E-01
   1.255338448056161E-01   1.271128661892131E-01   1.287117492167652E-01
   1.303307437169986E-01   1.319701026610977E-01   1.336300822022328E-01
   1.353109417155846E-01   1.370129438388717E-01   1.387363545133886E-01
   1.404814430255595E-01   1.422484820490149E-01   1.440377476871972E-01
   1.458495195165027E-01   1.476840806299659E-01   1.495417176814931E-01
   1.514227209306530E-01   1.533273842880302E-01   1.552560053611494E-01
   1.572088855009771E-01   1.591863298490083E-01   1.611886473849455E-01
   1.632161509749774E-01   1.652691574206650E-01   1.673479875084423E-01
   1.694529660597400E-01   1.715844219817391E-01   1.737426883187642E-01
   1.759281023043213E-01   1.781410054137920E-01   1.803817434177893E-01
   1.826506664361851E-01   1.849481289928172E-01   1.872744900708843E-01
   1.896301131690380E-01   1.920153663581798E-01   1.944306223389733E-01
   1.968762585000794E-01   1.993526569771241E-01   2.018602047124076E-01
   2.043992935153651E-01   2.069703201237880E-01   2.095736862658147E-01
   2.122097987227013E-01   2.148790693923826E-01   2.175819153538314E-01
   2.203187589322279E-01   2.230900277649497E-01   2.258961548683898E-01
   2.287375787056175E-01   2.316147432548882E-01   2.345280980790162E-01
   2.374780983956203E-01   2.404652051482516E-01   2.434898850784176E-01
   2.465526107985111E-01   2.496538608656571E-01   2.527941198564880E-01
   2.559738784428601E-01   2.591936334685219E-01   2.624538880267467E-01
   2.657551515389421E-01   2.690979398342487E-01   2.724827752301383E-01
   2.759101866140282E-01   2.793807095259201E-01   2.828948862420799E-01
   2.864532658597693E-01   2.900564043830428E-01   2.937048648096256E-01
   2.973992172188821E-01   3.011400388608923E-01   3.049279142466488E-01
   3.087634352393869E-01   3.126472011470655E-01   3.165798188160088E-01
   3.205619027257287E-01   3.245940750849379E-01   3.286769659287707E-01
   3.328112132172286E-01   3.369974629348613E-01   3.412363691917041E-01
   3.455285943254840E-01   3.498748090051105E-01   3.542756923354701E-01
   3.587319319635365E-01   3.632442241858179E-01   3.678132740571546E-01
   3.724397955008845E-01   3.771245114203963E-01   3.818681538120832E-01
   3.866714638797199E-01   3.915351921502772E-01   3.964600985911923E-01
   4.014469527291168E-01   4.064965337701554E-01   4.116096307216190E-01
   4.167870425153095E-01   4.220295781323525E-01   4.273380567296047E-01
   4.327133077676470E-01   4.381561711403898E-01   4.436674973063092E-01
   4.492481474213312E-01   4.548989934733901E-01   4.606209184186785E-01
   4.664148163196102E-01   4.722815924845205E-01   4.782221636091207E-01
   4.842374579197352E-01   4.903284153183387E-01   4.964959875294164E-01
   5.027411382486746E-01   5.090648432936190E-01   5.154680907560283E-01
   5.219518811563464E-01   5.285172276000143E-01   5.351651559357715E-01
   5.418967049159458E-01   5.487129263587603E-01   5.556148853126839E-01
   5.626036602228445E-01   5.696803430995411E-01   5.768460396888707E-01
   5.841018696455038E-01   5.914489667076339E-01   5.988884788741240E-01
   6.064215685838865E-01   6.140494128975145E-01   6.217732036812007E-01
   6.295941477929698E-01   6.375134672712505E-01   6.455323995258239E-01
   6.536521975311690E-01   6.618741300222437E-01   6.701994816927282E-01
   6.786295533957583E-01   6.871656623471892E-01   6.958091423314114E-01
   7.045613439097573E-01   7.134236346315305E-01   7.223973992476863E-01
   7.314840399272038E-01   7.406849764761757E-01   7.500016465596570E-01
   7.594355059263037E-01   7.689880286358350E-01   7.786607072893582E-01
   7.884550532625937E-01   7.983725969420257E-01   8.084148879640315E-01
   8.185834954570146E-01   8.288800082865833E-01   8.393060353038168E-01
   8.498632055966479E-01   8.605531687444137E-01   8.713775950756047E-01
   8.823381759288572E-01   8.934366239172302E-01   9.046746731958013E-01
   9.160540797326340E-01   9.275766215831515E-01   9.392440991679607E-01
   9.510583355541711E-01   9.630211767402557E-01   9.751344919444880E-01
   9.874001738970131E-01   9.998201391355906E-01   1.012396328305057E+00
   1.025130706460559E+00   1.038025263374589E+00   1.051082013847901E+00
   1.064302998024319E+00   1.077690281709520E+00   1.091245956693816E+00
   1.104972141079002E+00   1.118870979609315E+00   1.132944644006554E+00
   1.147195333309410E+00   1.161625274217085E+00   1.176236721437201E+00
   1.191031958038114E+00   1.206013295805643E+00   1.221183075604294E+00
   1.236543667743026E+00   1.252097472345610E+00   1.267846919725661E+00
   1.283794470766372E+00   1.299942617305041E+00   1.316293882522418E+00
   1.332850821336960E+00   1.349616020804042E+00   1.366592100520189E+00
   1.383781713032395E+00   1.401187544252590E+00   1.418812313877312E+00
   1.436658775812673E+00   1.454729718604660E+00   1.473027965874848E+00
   1.491556376761605E+00   1.510317846366825E+00   1.529315306208306E+00
   1.548551724677797E+00   1.568030107504822E+00   1.587753498226327E+00
   1.607724978662240E+00   1.627947669397011E+00   1.648424730267210E+00
   1.669159360855258E+00   1.690154800989373E+00   1.711414331249788E+00
   1.732941273481361E+00   1.754738991312612E+00   1.776810890681298E+00
   1.799160420366605E+00   1.821791072528014E+00   1.844706383250968E+00
   1.867909933099390E+00   1.891405347675148E+00   1.915196298184577E+00
   1.939286502012095E+00   1.963679723301061E+00   1.988379773541930E+00
   2.013390512167803E+00   2.038715847157479E+00   2.064359735646073E+00
   2.090326184543335E+00   2.116619251159732E+00   2.143243043840417E+00
   2.170201722607166E+00   2.197499499808382E+00   2.225140640777290E+00
   2.253129464498404E+00   2.281470344282371E+00   2.310167708449322E+00
   2.339226041020790E+00   2.368649882420360E+00   2.398443830183115E+00
   2.428612539674005E+00   2.459160724815272E+00   2.490093158822992E+00
   2.521414674952913E+00   2.553130167255653E+00   2.585244591341408E+00
   2.617762965154284E+00   2.650690369756345E+00   2.684031950121552E+00
   2.717792915939671E+00   2.751978542430295E+00   2.786594171167120E+00
   2.821645210912561E+00   2.857137138462888E+00   2.893075499503991E+00
   2.929465909477896E+00   2.966314054460205E+00   3.003625692048536E+00
   3.041406652262173E+00   3.079662838453017E+00   3.118400228227988E+00
   3.157624874383058E+00   3.197342905848987E+00   3.237560528649001E+00
   3.278284026868483E+00   3.319519763636882E+00   3.361274182121967E+00
   3.403553806536574E+00   3.446365243158037E+00   3.489715181360427E+00
   3.533610394659783E+00   3.578057741772493E+00   3.623064167686971E+00
   3.668636704748831E+00   3.714782473759708E+00   3.761508685089889E+00
   3.808822639804969E+00   3.856731730806628E+00   3.905243443987806E+00
   3.954365359402388E+00   4.004105152449591E+00   4.054470595073282E+00
   4.105469556976341E+00   4.157110006850317E+00   4.209400013620572E+00
   4.262347747707040E+00   4.315961482300906E+00   4.370249594657273E+00
   4.425220567404148E+00   4.480882989867860E+00   4.537245559415163E+00
   4.594317082812226E+00   4.652106477600689E+00   4.710622773491061E+00
   4.769875113773628E+00   4.829872756747104E+00   4.890625077165278E+00
   4.952141567701814E+00   5.014431840433513E+00   5.077505628342221E+00
   5.141372786835618E+00   5.206043295287167E+00   5.271527258595382E+00
   5.337834908762759E+00   5.404976606494539E+00   5.472962842817589E+00
   5.541804240719664E+00   5.611511556809239E+00   5.682095682996275E+00
   5.753567648194092E+00   5.825938620042659E+00   5.899219906653577E+00
   5.973422958376966E+00   6.048559369590624E+00   6.124640880511671E+00
   6.201679379030971E+00   6.279686902570664E+00   6.358675639965007E+00
   6.438657933364921E+00   6.519646280166473E+00   6.601653334963620E+00
   6.684691911525528E+00   6.768774984798723E+00   6.853915692934473E+00
   6.940127339341645E+00   7.027423394765381E+00   7.115817499391958E+00
   7.205323464980060E+00   7.295955277018908E+00   7.387727096913527E+00
   7.480653264197481E+00   7.574748298773478E+00   7.670026903182105E+00
   7.766503964899144E+00   7.864194558661775E+00   7.963113948824017E+00
   8.063277591741851E+00   8.164701138188260E+00   8.267400435798724E+00
   8.371391531547440E+00   8.476690674254680E+00   8.583314317125742E+00
   8.691279120321742E+00   8.800601953562838E+00   8.911299898764142E+00
   9.023390252704800E+00   9.136890529730682E+00   9.251818464490983E+00
   9.368192014709329E+00   9.486029363989710E+00   9.605348924657683E+00
   9.726169340637377E+00   9.848509490364588E+00   9.972388489736620E+00
   1.009782569509915E+01   1.022484070627072E+01   1.035345336960526E+01
   1.048368378109306E+01   1.061555228950087E+01   1.074907949955143E+01
   1.088428627514296E+01   1.102119374260924E+01   1.115982329402059E+01
   1.130019659052648E+01   1.144233556574006E+01   1.158626242916539E+01
   1.173199966966772E+01   1.187957005898737E+01   1.202899665529792E+01
   1.218030280680904E+01   1.233351215541473E+01   1.248864864038744E+01
   1.264573650211857E+01   1.280480028590610E+01   1.296586484578987E+01
   1.312895534843505E+01   1.329409727706449E+01   1.346131643544053E+01
   1.363063895189687E+01   1.380209128342119E+01   1.397570021978910E+01
   1.415149288775016E+01   1.432949675526636E+01   1.450973963580415E+01