<UPF version="2.0.1">
  <PP_INFO>
    Generated using "atomic" code by A. Dal Corso  v.7.2
    Author: ADC
    Generation date: 31May2024
    Pseudopotential type: PAW
    Element: Ne
    Functional:  SLA  PW   BEEX BEEC
    Suggested minimum cutoff for wavefunctions:  55. Ry
    Suggested minimum cutoff for charge density: 264. Ry
    The Pseudo was generated with a Scalar-Relativistic Calculation
    Local Potential by smoothing AE potential with Bessel fncs, cutoff radius:   1.0000
    Valence configuration: 
    nl pn  l   occ       Rcut    Rcut US       E pseu
    2S  1  0  2.00      1.000      1.400    -2.734123
    2P  2  1  6.00      1.000      1.400    -1.024688
    Generation configuration:
    2S  1  0  2.00      1.000      1.400    -2.734125
    2S  1  0  0.00      1.000      1.400     0.400000
    2P  2  1  6.00      1.000      1.400    -1.024686
    2P  2  1  0.00      1.000      1.400     0.050000
    Pseudization used: troullier-martins
    <PP_INPUTFILE>
@input
title='Ne',
zed=10.,
rel=1,
config='[He] 2s2 2p6',
iswitch=3,
dft='SLA-PW-BEEX-BEEC'
/
@inputp
lpaw=.true.,
pseudotype=3,
file_pseudopw='Ne.beef-n-kjpaw_psl.1.0.0.UPF',
author='ADC',
lloc=-1,
rcloc=1.0
which_augfun='PSQ',
rmatch_augfun_nc=.true.,
nlcc=.true.,
new_core_ps=.true.,
rcore=0.8,
tm=.true.
/
4
2S  1  0  2.00  0.00  1.00  1.40  0.0
2S  1  0  0.00  0.40  1.00  1.40  0.0
2P  2  1  6.00  0.00  1.00  1.40  0.0
2P  2  1  0.00  0.05  1.00  1.40  0.0
    </PP_INPUTFILE>
  </PP_INFO>
    <!-- END OF HUMAN READABLE SECTION -->
  <PP_HEADER generated="Generated using 'atomic' code by A. Dal Corso  v.7.2" author="ADC" date="31May2024" comment="" element="Ne" pseudo_type="PAW" relativistic="scalar" is_ultrasoft="true" is_paw="true" is_coulomb="false" has_so="false" has_wfc="true" has_gipaw="false" paw_as_gipaw="false" core_correction="true" functional=" SLA  PW   BEEX BEEC" z_valence="8.00000000000000" total_psenergy="-83.3597468318705" wfc_cutoff="55.2467978509657" rho_cutoff="264.009191238272" l_max="1" l_max_rho="2" l_local="-1" mesh_size="1113" number_of_wfc="2" number_of_proj="4"/>
  <PP_MESH mesh="1113" dx="1.250000000000000E-002" xmin="-7.00000000000000" rmax="100.000000000000" zmesh="10.0000000000000">
    <PP_R>
   9.118819655545162E-05   9.233520286690222E-05   9.349663674165822E-05
   9.467267965612540E-05   9.586351536940198E-05   9.706932995199089E-05
   9.829031181487387E-05   9.952665173895113E-05   1.007785429048510E-04
   1.020461809231155E-04   1.033297638647637E-04   1.046294922922418E-04
   1.059455692907610E-04   1.072782005000297E-04   1.086275941463858E-04
   1.099939610753318E-04   1.113775147844803E-04   1.127784714569132E-04
   1.141970499949607E-04   1.156334720544058E-04   1.170879620791174E-04
   1.185607473361213E-04   1.200520579511101E-04   1.215621269444015E-04
   1.230911902673481E-04   1.246394868392049E-04   1.262072585844614E-04
   1.277947504706424E-04   1.294022105465848E-04   1.310298899811960E-04
   1.326780431026992E-04   1.343469274383727E-04   1.360368037547894E-04
   1.377479360985617E-04   1.394805918375999E-04   1.412350417028882E-04
   1.430115598307874E-04   1.448104238058696E-04   1.466319147042903E-04
   1.484763171377087E-04   1.503439192977572E-04   1.522350130010732E-04
   1.541498937348950E-04   1.560888607032332E-04   1.580522168736217E-04
   1.600402690244564E-04   1.620533277929307E-04   1.640917077235726E-04
   1.661557273173934E-04   1.682457090816541E-04   1.703619795802574E-04
   1.725048694847742E-04   1.746747136261120E-04   1.768718510468321E-04
   1.790966250541270E-04   1.813493832734615E-04   1.836304777028907E-04
   1.859402647680601E-04   1.882791053778977E-04   1.906473649810077E-04
   1.930454136227709E-04   1.954736260031667E-04   1.979323815353197E-04
   2.004220644047839E-04   2.029430636295734E-04   2.054957731209459E-04
   2.080805917449529E-04   2.106979233847634E-04   2.133481770037708E-04
   2.160317667094954E-04   2.187491118182885E-04   2.215006369208517E-04
   2.242867719485803E-04   2.271079522407407E-04   2.299646186124936E-04
   2.328572174237714E-04   2.357862006490233E-04   2.387520259478373E-04
   2.417551567364503E-04   2.447960622601583E-04   2.478752176666358E-04
   2.509931040801798E-04   2.541502086768859E-04   2.573470247607700E-04
   2.605840518408498E-04   2.638617957091922E-04   2.671807685199451E-04
   2.705414888693626E-04   2.739444818768369E-04   2.773902792669488E-04
   2.808794194525513E-04   2.844124476188968E-04   2.879899158088243E-04
   2.916123830090168E-04   2.952804152373446E-04   2.989945856313061E-04
   3.027554745375815E-04   3.065636696027143E-04   3.104197658649309E-04
   3.143243658471181E-04   3.182780796509667E-04   3.222815250523026E-04
   3.263353275976148E-04   3.304401207017982E-04   3.345965457471272E-04
   3.388052521834712E-04   3.430668976297735E-04   3.473821479768054E-04
   3.517516774912128E-04   3.561761689208730E-04   3.606563136015730E-04
   3.651928115650343E-04   3.697863716482932E-04   3.744377116044580E-04
   3.791475582148608E-04   3.839166474026164E-04   3.887457243476131E-04
   3.936355436029483E-04   3.985868692128290E-04   4.036004748319558E-04
   4.086771438464067E-04   4.138176694960437E-04   4.190228549984580E-04
   4.242935136744740E-04   4.296304690752340E-04   4.350345551108769E-04
   4.405066161808406E-04   4.460475073058002E-04   4.516580942612667E-04
   4.573392537128673E-04   4.630918733533246E-04   4.689168520411611E-04
   4.748150999411478E-04   4.807875386665190E-04   4.868351014229763E-04
   4.929587331545051E-04   4.991593906910217E-04   5.054380428978814E-04
   5.117956708272656E-04   5.182332678714725E-04   5.247518399181385E-04
   5.313524055074075E-04   5.380359959910820E-04   5.448036556937729E-04
   5.516564420760771E-04   5.585954258998099E-04   5.656216913953108E-04
   5.727363364308586E-04   5.799404726842146E-04   5.872352258163252E-04
   5.946217356472094E-04   6.021011563340559E-04   6.096746565515638E-04
   6.173434196745508E-04   6.251086439628561E-04   6.329715427485747E-04
   6.409333446256384E-04   6.489952936417887E-04   6.571586494929619E-04
   6.654246877201174E-04   6.737946999085467E-04   6.822699938896827E-04
   6.908518939454532E-04   6.995417410152017E-04   7.083408929052118E-04
   7.172507245008699E-04   7.262726279814891E-04   7.354080130378436E-04
   7.446583070924344E-04   7.540249555225269E-04   7.635094218859962E-04
   7.731131881500070E-04   7.828377549225773E-04   7.926846416870503E-04
   8.026553870395154E-04   8.127515489292211E-04   8.229747049020031E-04
   8.333264523467809E-04   8.438084087451538E-04   8.544222119241339E-04
   8.651695203120635E-04   8.760520131977428E-04   8.870713909928258E-04
   8.982293754975125E-04   9.095277101695816E-04   9.209681603968140E-04
   9.325525137728327E-04   9.442825803764211E-04   9.561601930543513E-04
   9.681872077077684E-04   9.803655035821829E-04   9.926969835611012E-04
   1.005183574463359E-03   1.017827227344188E-03   1.030629917800074E-03
   1.043593646277450E-03   1.056720438385266E-03   1.070012345211493E-03
   1.083471443643616E-03   1.097099836693148E-03   1.110899653824231E-03
   1.124873051286366E-03   1.139022212451338E-03   1.153349348154363E-03
   1.167856697039544E-03   1.182546525909662E-03   1.197421130080362E-03
   1.212482833738810E-03   1.227733990306845E-03   1.243176982808708E-03
   1.258814224243400E-03   1.274648157961707E-03   1.290681258047987E-03
   1.306916029706749E-03   1.323355009654093E-03   1.340000766514083E-03
   1.356855901220093E-03   1.373923047421214E-03   1.391204871893763E-03
   1.408704074957972E-03   1.426423390899926E-03   1.444365588398788E-03
   1.462533470959422E-03   1.480929877350441E-03   1.499557682047770E-03
   1.518419795683794E-03   1.537519165502143E-03   1.556858775818209E-03
   1.576441648485450E-03   1.596270843367561E-03   1.616349458816587E-03
   1.636680632157043E-03   1.657267540176125E-03   1.678113399620097E-03
   1.699221467696907E-03   1.720595042585138E-03   1.742237463949351E-03
   1.764152113461916E-03   1.786342415331405E-03   1.808811836837630E-03
   1.831563888873418E-03   1.854602126493188E-03   1.877930149468441E-03
   1.901551602850225E-03   1.925470177538693E-03   1.949689610859799E-03
   1.974213687149278E-03   1.999046238343943E-03   2.024191144580439E-03
   2.049652334801526E-03   2.075433787369974E-03   2.101539530690203E-03
   2.127973643837718E-03   2.154740257196477E-03   2.181843553104277E-03
   2.209287766506244E-03   2.237077185616560E-03   2.265216152588497E-03
   2.293709064192893E-03   2.322560372505157E-03   2.351774585600911E-03
   2.381356268260388E-03   2.411310042681687E-03   2.441640589203003E-03
   2.472352647033940E-03   2.503451014996015E-03   2.534940552272495E-03
   2.566826179167643E-03   2.599112877875535E-03   2.631805693258531E-03
   2.664909733635549E-03   2.698430171580249E-03   2.732372244729257E-03
   2.766741256600558E-03   2.801542577422182E-03   2.836781644971310E-03
   2.872463965423943E-03   2.908595114215247E-03   2.945180736910729E-03
   2.982226550088371E-03   3.019738342231850E-03   3.057721974635010E-03
   3.096183382317689E-03   3.135128574953089E-03   3.174563637806795E-03
   3.214494732687607E-03   3.254928098910343E-03   3.295870054270737E-03
   3.337326996032608E-03   3.379305401927456E-03   3.421811831166603E-03
   3.464852925466103E-03   3.508435410084504E-03   3.552566094873697E-03
   3.597251875342967E-03   3.642499733736424E-03   3.688316740124002E-03
   3.734710053506162E-03   3.781686922932508E-03   3.829254688634466E-03
   3.877420783172201E-03   3.926192732595981E-03   3.975578157622132E-03
   4.025584774823785E-03   4.076220397836622E-03   4.127492938579755E-03
   4.179410408491992E-03   4.231980919783632E-03   4.285212686704018E-03
   4.339114026825038E-03   4.393693362340742E-03   4.448959221383352E-03
   4.504920239355783E-03   4.561585160280940E-03   4.618962838168012E-03
   4.677062238395898E-03   4.735892439114093E-03   4.795462632661148E-03
   4.855782127000998E-03   4.916860347177358E-03   4.978706836786395E-03
   5.041331259467938E-03   5.104743400415441E-03   5.168953167904939E-03
   5.233970594843241E-03   5.299805840335583E-03   5.366469191273014E-03
   5.433971063939749E-03   5.502322005640723E-03   5.571532696349643E-03
   5.641613950377737E-03   5.712576718063529E-03   5.784432087483848E-03
   5.857191286186353E-03   5.930865682943875E-03   6.005466789530798E-03
   6.081006262521798E-03   6.157495905113224E-03   6.234947668967343E-03
   6.313373656079840E-03   6.392786120670760E-03   6.473197471099255E-03
   6.554620271802436E-03   6.637067245258560E-03   6.720551273974978E-03
   6.805085402501023E-03   6.890682839466258E-03   6.977356959644366E-03
   7.065121306042960E-03   7.153989592019726E-03   7.243975703425149E-03
   7.335093700772214E-03   7.427357821433391E-03   7.520782481865241E-03
   7.615382279861036E-03   7.711171996831674E-03   7.808166600115317E-03
   7.906381245316068E-03   8.005831278672054E-03   8.106532239453328E-03
   8.208499862389883E-03   8.311750080130256E-03   8.416299025731041E-03
   8.522163035177683E-03   8.629358649937054E-03   8.737902619542043E-03
   8.847811904208731E-03   8.959103677486471E-03   9.071795328941252E-03
   9.185904466872893E-03   9.301448921066354E-03   9.418446745577670E-03
   9.536916221554965E-03   9.656875860094883E-03   9.778344405135008E-03
   9.901340836382635E-03   1.002588437228038E-02   1.015199447300911E-02
   1.027969084352864E-02   1.040899343665667E-02   1.053992245618644E-02
   1.067249836004362E-02   1.080674186348293E-02   1.094267394232489E-02
   1.108031583623339E-02   1.121968905203438E-02   1.136081536707638E-02
   1.150371683263324E-02   1.164841577734970E-02   1.179493481073025E-02
   1.194329682667197E-02   1.209352500704167E-02   1.224564282529820E-02
   1.239967405016012E-02   1.255564274931973E-02   1.271357329320356E-02
   1.287349035878042E-02   1.303541893341717E-02   1.319938431878302E-02
   1.336541213480305E-02   1.353352832366127E-02   1.370375915385425E-02
   1.387613122429553E-02   1.405067146847181E-02   1.422740715865136E-02
   1.440636591014533E-02   1.458757568562274E-02   1.477106479947969E-02
   1.495686192226351E-02   1.514499608515266E-02   1.533549668449285E-02
   1.552839348639030E-02   1.572371663136277E-02   1.592149663904903E-02
   1.612176441297768E-02   1.632455124539584E-02   1.652988882215866E-02
   1.673780922768026E-02   1.694834494994701E-02   1.716152888559388E-02
   1.737739434504452E-02   1.759597505771616E-02   1.781730517728985E-02
   1.804141928704708E-02   1.826835240527347E-02   1.849813999073043E-02
   1.873081794819571E-02   1.896642263407353E-02   1.920499086207542E-02
   1.944655990897236E-02   1.969116752041941E-02   1.993885191685352E-02
   2.018965179946555E-02   2.044360635624741E-02   2.070075526811527E-02
   2.096113871510979E-02   2.122479738267432E-02   2.149177246801207E-02
   2.176210568652329E-02   2.203583927832339E-02   2.231301601484299E-02
   2.259367920551109E-02   2.287787270452225E-02   2.316564091768889E-02
   2.345702880937977E-02   2.375208190954582E-02   2.405084632083422E-02
   2.435336872579208E-02   2.465969639416065E-02   2.496987719026136E-02
   2.528395958047465E-02   2.560199264081301E-02   2.592402606458916E-02
   2.625011017018073E-02   2.658029590889267E-02   2.691463487291839E-02
   2.725317930340127E-02   2.759598209859732E-02   2.794309682214074E-02
   2.829457771141329E-02   2.865047968601902E-02   2.901085835636554E-02
   2.937577003235329E-02   2.974527173217407E-02   3.011942119122022E-02
   3.049827687110594E-02   3.088189796880200E-02   3.127034442588539E-02
   3.166367693790533E-02   3.206195696386707E-02   3.246524673583498E-02
   3.287360926865642E-02   3.328710836980796E-02   3.370580864936544E-02
   3.412977553009938E-02   3.455907525769746E-02   3.499377491111555E-02
   3.543394241305888E-02   3.587964654059517E-02   3.633095693590114E-02
   3.678794411714424E-02   3.725067948950131E-02   3.771923535631570E-02
   3.819368493039491E-02   3.867410234545014E-02   3.916056266767991E-02
   3.965314190749930E-02   4.015191703141668E-02   4.065696597405992E-02
   4.116836765035386E-02   4.168620196785085E-02   4.221054983921656E-02
   4.274149319487268E-02   4.327911499579874E-02   4.382349924649494E-02
   4.437473100810800E-02   4.493289641172218E-02   4.549808267181737E-02
   4.607037809989660E-02   4.664987211828485E-02   4.723665527410149E-02
   4.783081925340842E-02   4.843245689553626E-02   4.904166220759063E-02
   4.965853037914097E-02   5.028315779709411E-02   5.091564206075494E-02
   5.155608199707643E-02   5.220457767610161E-02   5.286123042659975E-02
   5.352614285189904E-02   5.419941884591874E-02   5.488116360940266E-02
   5.557148366635715E-02   5.627048688069559E-02   5.697828247309232E-02
   5.769498103804869E-02   5.842069456117360E-02   5.915553643668152E-02
   5.989962148511056E-02   6.065306597126337E-02   6.141598762237380E-02
   6.218850564650204E-02   6.297074075116102E-02   6.376281516217736E-02
   6.456485264278923E-02   6.537697851298475E-02   6.619931966908342E-02
   6.703200460356395E-02   6.787516342514147E-02   6.872892787909725E-02
   6.959343136786422E-02   7.046880897187137E-02   7.135519747065028E-02
   7.225273536420725E-02   7.316156289466422E-02   7.408182206817182E-02
   7.501365667709821E-02   7.595721232249689E-02   7.691263643685708E-02
   7.788007830714053E-02   7.885968909810769E-02   7.985162187593774E-02
   8.085603163214528E-02   8.187307530779822E-02   8.290291181804008E-02
   8.394570207692077E-02   8.500160902253985E-02   8.607079764250582E-02
   8.715343499971581E-02   8.824969025845958E-02   8.935973471085160E-02
   9.048374180359600E-02   9.162188716508780E-02   9.277434863285532E-02
   9.394130628134761E-02   9.512294245007144E-02   9.631944177208221E-02
   9.753099120283330E-02   9.875778004938818E-02   1.000000000000000E-01
   1.012578451540635E-01   1.025315120524429E-01   1.038211997081826E-01
   1.051271096376025E-01   1.064494458917860E-01   1.077884150884632E-01
   1.091442264442952E-01   1.105170918075648E-01   1.119072256912781E-01
   1.133148453066827E-01   1.147401705972073E-01   1.161834242728284E-01
   1.176448318448691E-01   1.191246216612359E-01   1.206230249420981E-01
   1.221402758160170E-01   1.236766113565285E-01   1.252322716191865E-01
   1.268074996790720E-01   1.284025416687742E-01   1.300176468168492E-01
   1.316530674867622E-01   1.333090592163203E-01   1.349858807576004E-01
   1.366837941173797E-01   1.384030645980752E-01   1.401439608391974E-01
   1.419067548593258E-01   1.436917220986125E-01   1.454991414618202E-01
   1.473292953619016E-01   1.491824697641271E-01   1.510589542307673E-01
   1.529590419663379E-01   1.548830298634134E-01   1.568312185490169E-01
   1.588039124315944E-01   1.608014197485784E-01   1.628240526145511E-01
   1.648721270700129E-01   1.669459631307643E-01   1.690458848379092E-01
   1.711722203084865E-01   1.733253017867396E-01   1.755054656960299E-01
   1.777130526914039E-01   1.799484077128209E-01   1.822118800390510E-01
   1.845038233422501E-01   1.868245957432223E-01   1.891745598673770E-01
   1.915540829013897E-01   1.939635366505755E-01   1.964032975969848E-01
   1.988737469582293E-01   2.013752707470478E-01   2.039082598316216E-01
   2.064731099966487E-01   2.090702220051857E-01   2.117000016612676E-01
   2.143628598733160E-01   2.170592127183443E-01   2.197894815069703E-01
   2.225540928492469E-01   2.253534787213209E-01   2.281880765329304E-01
   2.310583291957505E-01   2.339646851925992E-01   2.369075986475141E-01
   2.398875293967099E-01   2.429049430604289E-01   2.459603111156951E-01
   2.490541109699832E-01   2.521868260358149E-01   2.553589458062928E-01
   2.585709659315847E-01   2.618233882963702E-01   2.651167210982608E-01
   2.684514789272071E-01   2.718281828459047E-01   2.752473604712106E-01
   2.787095460565852E-01   2.822152805755702E-01   2.857651118063165E-01
   2.893595944171762E-01   2.929992900533703E-01   2.966847674247469E-01
   3.004166023946435E-01   3.041953780698665E-01   3.080216848918033E-01
   3.118961207286793E-01   3.158192909689769E-01   3.197918086160277E-01
   3.238142943837962E-01   3.278873767938675E-01   3.320116922736549E-01
   3.361878852558430E-01   3.404166082790821E-01   3.446985220899476E-01
   3.490342957461843E-01   3.534246067212471E-01   3.578701410101580E-01
   3.623715932366944E-01   3.669296667619246E-01   3.715450737941106E-01
   3.762185354999912E-01   3.809507821174662E-01   3.857425530696976E-01
   3.905945970806454E-01   3.955076722920579E-01   4.004825463819326E-01
   4.055199966844676E-01   4.106208103115215E-01   4.157857842756010E-01
   4.210157256143963E-01   4.263114515168819E-01   4.316737894510047E-01
   4.371035772929760E-01   4.426016634581936E-01   4.481689070338067E-01
   4.538061779129505E-01   4.595143569306691E-01   4.652943360015473E-01
   4.711470182590743E-01   4.770733181967605E-01   4.830741618110281E-01
   4.891504867459007E-01   4.953032424395117E-01   5.015333902724561E-01
   5.078419037180083E-01   5.142297684942287E-01   5.206979827179852E-01
   5.272475570609094E-01   5.338795149073179E-01   5.405948925141170E-01
   5.473947391727202E-01   5.542801173730025E-01   5.612521029693160E-01
   5.683117853485946E-01   5.754602676005733E-01   5.826986666901476E-01
   5.900281136319020E-01   5.974497536668327E-01   6.049647464412949E-01
   6.125742661881989E-01   6.202795019104868E-01   6.280816575669167E-01
   6.359819522601835E-01   6.439816204274063E-01   6.520819120330115E-01
   6.602840927640430E-01   6.685894442279273E-01   6.769992641527279E-01
   6.855148665899182E-01   6.941375821197038E-01   7.028687580589297E-01
   7.117097586715999E-01   7.206619653820472E-01   7.297267769907835E-01
   7.389056098930653E-01   7.481998983002083E-01   7.576110944636849E-01
   7.671406689020434E-01   7.767901106306778E-01   7.865609273944896E-01
   7.964546459034777E-01   8.064728120712875E-01   8.166169912567656E-01
   8.268887685085474E-01   8.372897488127269E-01   8.478215573436378E-01
   8.584858397177897E-01   8.692842622510009E-01   8.802185122187612E-01
   8.912902981198740E-01   9.025013499434127E-01   9.138534194390328E-01
   9.253482803906898E-01   9.369877288937936E-01   9.487735836358530E-01
   9.607076861806508E-01   9.727919012559887E-01   9.850281170450590E-01
   9.974182454814727E-01   1.009964222548006E+00   1.022668008579100E+00
   1.035531588567169E+00   1.048556972472758E+00   1.061746195538601E+00
   1.075101318607636E+00   1.088624428445014E+00   1.102317638064160E+00
   1.116183087056937E+00   1.130222941927959E+00   1.144439396433113E+00
   1.158834671922340E+00   1.173411017686721E+00   1.188170711309941E+00
   1.203116059024154E+00   1.218249396070348E+00   1.233573087063226E+00
   1.249089526360681E+00   1.264801138437923E+00   1.280710378266304E+00
   1.296819731696914E+00   1.313131715849002E+00   1.329648879503279E+00
   1.346373803500170E+00   1.363309101143076E+00   1.380457418606710E+00
   1.397821435350564E+00   1.415403864537581E+00   1.433207453458094E+00
   1.451234983959093E+00   1.469489272878895E+00   1.487973172487284E+00
   1.506689570931179E+00   1.525641392685916E+00   1.544831599012203E+00
   1.564263188418818E+00   1.583939197131143E+00   1.603862699565568E+00
   1.624036808809884E+00   1.644464677109706E+00   1.665149496361015E+00
   1.686094498608904E+00   1.707302956552586E+00   1.728778184056765E+00
   1.750523536669429E+00   1.772542412146165E+00   1.794838250981065E+00
   1.817414536944307E+00   1.840274797626505E+00   1.863422604989902E+00
   1.886861575926489E+00   1.910595372823166E+00   1.934627704133982E+00
   1.958962324959600E+00   1.983603037634033E+00   2.008553692318768E+00
   2.033818187604362E+00   2.059400471119603E+00   2.085304540148342E+00
   2.111534442254063E+00   2.138094275912335E+00   2.164988191151207E+00
   2.192220390199647E+00   2.219795128144165E+00   2.247716713593662E+00
   2.275989509352674E+00   2.304617933103059E+00   2.333606458094272E+00
   2.362959613842323E+00   2.392681986837515E+00   2.422778221261099E+00
   2.453253019710936E+00   2.484111143936285E+00   2.515357415581838E+00
   2.546996716941110E+00   2.579033991719307E+00   2.611474245805798E+00
   2.644322548056280E+00   2.677584031084813E+00   2.711263892065791E+00
   2.745367393546011E+00   2.779899864266968E+00   2.814866699997466E+00
   2.850273364376729E+00   2.886125389768103E+00   2.922428378123495E+00
   2.959188001858697E+00   2.996410004739702E+00   3.034100202780194E+00
   3.072264485150293E+00   3.110908815096768E+00   3.150039230874795E+00
   3.189661846691451E+00   3.229782853661070E+00   3.270408520772617E+00
   3.311545195869233E+00   3.353199306640095E+00   3.395377361624757E+00
   3.438085951230120E+00   3.481331748760205E+00   3.525121511458856E+00
   3.569462081565590E+00   3.614360387384695E+00   3.659823444367801E+00
   3.705858356210059E+00   3.752472315960102E+00   3.799672607143978E+00
   3.847466604903215E+00   3.895861777147199E+00   3.944865685720055E+00
   3.994485987582196E+00   4.044730436006741E+00   4.095606881790983E+00
   4.147123274483077E+00   4.199287663624201E+00   4.252108200006281E+00
   4.305593136945594E+00   4.359750831572353E+00   4.414589746136525E+00
   4.470118449330085E+00   4.526345617625879E+00   4.583280036633349E+00
   4.640930602471300E+00   4.699306323157931E+00   4.758416320018370E+00
   4.818269829109884E+00   4.878876202665044E+00   4.940244910553021E+00
   5.002385541759277E+00   5.065307805883867E+00   5.129021534658572E+00
   5.193536683483147E+00   5.258863332980847E+00   5.325011690573564E+00
   5.391992092076757E+00   5.459815003314429E+00   5.528491021754443E+00
   5.598030878164415E+00   5.668445438288382E+00   5.739745704544624E+00
   5.811942817744804E+00   5.885048058834741E+00   5.959072850657099E+00
   6.034028759736200E+00   6.109927498085337E+00   6.186780925036794E+00
   6.264601049094886E+00   6.343400029812335E+00   6.423190179690190E+00
   6.503983966101702E+00   6.585794013240376E+00   6.668633104092521E+00
   6.752514182434615E+00   6.837450354855815E+00   6.923454892805864E+00
   7.010541234668793E+00   7.098722987862693E+00   7.188013930965907E+00
   7.278428015869967E+00   7.369979369959585E+00   7.462682298320098E+00
   7.556551285972668E+00   7.651601000137589E+00   7.747846292526090E+00
   7.845302201660916E+00   7.943983955226140E+00   8.043906972446532E+00
   8.145086866496815E+00   8.247539446941303E+00   8.351280722204127E+00
   8.456326902070607E+00   8.562694400220066E+00   8.670399836790491E+00
   8.779460040975485E+00   8.889892053653833E+00   9.001713130052190E+00
   9.114940742441245E+00   9.229592582865788E+00   9.345686565909165E+00
   9.463240831492415E+00   9.582273747708696E+00   9.702803913693344E+00
   9.824850162530007E+00   9.948431564193386E+00   1.007356742852891E+01
   1.020027730826998E+01   1.032858100209308E+01   1.045849855771142E+01
   1.059005027500739E+01   1.072325670920446E+01   1.085813867407897E+01
   1.099471724521236E+01   1.113301376328424E+01   1.127304983740692E+01
   1.141484734850190E+01   1.155842845271878E+01   1.170381558489719E+01
   1.185103146207233E+01   1.200009908702455E+01   1.215104175187350E+01
   1.230388304171766E+01   1.245864683831955E+01   1.261535732383722E+01
   1.277403898460289E+01   1.293471661494890E+01   1.309741532108187E+01
   1.326216052500567E+01   1.342897796849355E+01   1.359789371711050E+01
   1.376893416428587E+01   1.394212603543753E+01   1.411749639214770E+01
   1.429507263639140E+01   1.447488251481810E+01   1.465695412308712E+01
   1.484131591025767E+01   1.502799668323410E+01   1.521702561126696E+01
   1.540843223051088E+01   1.560224644863951E+01   1.579849854951876E+01
   1.599721919793867E+01   1.619843944440483E+01   1.640219072999018E+01
   1.660850489124761E+01   1.681741416518456E+01   1.702895119430011E+01
   1.724314903168543E+01   1.746004114618843E+01   1.767966142764325E+01
   1.790204419216568E+01   1.812722418751514E+01   1.835523659852400E+01
   1.858611705259542E+01   1.881990162527005E+01   1.905662684586301E+01
   1.929632970317166E+01   1.953904765125510E+01   1.978481861528656E+01
   2.003368099747918E+01   2.028567368308651E+01   2.054083604647834E+01
   2.079920795729306E+01   2.106082978666745E+01   2.132574241354461E+01
   2.159398723106143E+01   2.186560615301642E+01   2.214064162041872E+01
   2.241913660811971E+01   2.270113463152781E+01   2.298667975340791E+01
   2.327581659076623E+01   2.356859032182186E+01   2.386504669306597E+01
   2.416523202640968E+01   2.446919322642206E+01   2.477697778765903E+01
   2.508863380208446E+01   2.540420996658471E+01   2.572375559057750E+01
   2.604732060371670E+01   2.637495556369392E+01   2.670671166413821E+01
   2.704264074261528E+01   2.738279528872706E+01   2.772722845231342E+01
   2.807599405175695E+01   2.842914658239209E+01   2.878674122502031E+01
   2.914883385453202E+01   2.951548104863725E+01   2.988674009670606E+01
   3.026266900871999E+01   3.064332652433643E+01   3.102877212206664E+01
   3.141906602856945E+01   3.181426922806181E+01   3.221444347184765E+01
   3.261965128796680E+01   3.302995599096489E+01   3.344542169178654E+01
   3.386611330779276E+01   3.429209657290444E+01   3.472343804787347E+01
   3.516020513068288E+01   3.560246606707794E+01   3.605028996122977E+01
   3.650374678653289E+01   3.696290739653889E+01   3.742784353602722E+01
   3.789862785221559E+01   3.837533390611122E+01   3.885803618400488E+01
   3.934681010910961E+01   3.984173205334559E+01   4.034287934927355E+01
   4.085033030217805E+01   4.136416420230288E+01   4.188446133724040E+01
   4.241130300447646E+01   4.294477152409343E+01   4.348495025163287E+01
   4.403192359111989E+01   4.458577700825172E+01   4.514659704375156E+01
   4.571447132689094E+01   4.628948858918196E+01   4.687173867824170E+01
   4.746131257183124E+01   4.805830239207094E+01   4.866280141983476E+01
   4.927490410932567E+01   4.989470610283421E+01   5.052230424568290E+01
   5.115779660135842E+01   5.180128246683424E+01   5.245286238808605E+01
   5.311263817580211E+01   5.378071292129169E+01   5.445719101259294E+01
   5.514217815078392E+01   5.583578136649860E+01   5.653810903665052E+01
   5.724927090136714E+01   5.796937808113664E+01   5.869854309417094E+01
   5.943687987398683E+01   6.018450378720822E+01   6.094153165159277E+01
   6.170808175428436E+01   6.248427387029615E+01   6.327022928122541E+01
   6.406607079420408E+01   6.487192276108784E+01   6.568791109788597E+01
   6.651416330443624E+01   6.735080848432695E+01   6.819797736506955E+01
   6.905580231852538E+01   6.992441738158858E+01   7.080395827713001E+01
   7.169456243520399E+01   7.259636901452214E+01   7.350951892419734E+01
   7.443415484576070E+01   7.537042125545619E+01   7.631846444681517E+01
   7.727843255351499E+01   7.825047557252557E+01   7.923474538754621E+01
   8.023139579273797E+01   8.124058251675440E+01   8.226246324707424E+01
   8.329719765464080E+01   8.434494741881035E+01   8.540587625261523E+01
   8.648014992834418E+01   8.756793630344460E+01   8.866940534675084E+01
   8.978472916504184E+01   9.091408202993331E+01   9.205764040510810E+01
   9.321558297388883E+01   9.438809066715790E+01   9.557534669162776E+01
   9.677753655846774E+01   9.799484811229043E+01   9.922747156050262E+01
    </PP_R>
    <PP_RAB>
   1.139852456943145E-06   1.154190035836278E-06   1.168707959270728E-06
   1.183408495701568E-06   1.198293942117525E-06   1.213366624399886E-06
   1.228628897685924E-06   1.244083146736889E-06   1.259731786310638E-06
   1.275577261538943E-06   1.291622048309546E-06   1.307868653653023E-06
   1.324319616134513E-06   1.340977506250371E-06   1.357844926829823E-06
   1.374924513441648E-06   1.392218934806004E-06   1.409730893211416E-06
   1.427463124937009E-06   1.445418400680072E-06   1.463599525988968E-06
   1.482009341701516E-06   1.500650724388876E-06   1.519526586805019E-06
   1.538639878341851E-06   1.557993585490062E-06   1.577590732305768E-06