<UPF version="2.0.1">
  <PP_INFO>
    Generated using "atomic" code by A. Dal Corso  v.7.2
    Author: ADC
    Generation date: 31May2024
    Pseudopotential type: PAW
    Element:  O
    Functional:  SLA  PW   BEEX BEEC
    Suggested minimum cutoff for wavefunctions:  43. Ry
    Suggested minimum cutoff for charge density: 316. Ry
    The Pseudo was generated with a Scalar-Relativistic Calculation
    Local Potential by smoothing AE potential with Bessel fncs, cutoff radius:   1.1000
    Valence configuration: 
    nl pn  l   occ       Rcut    Rcut US       E pseu
    2S  1  0  2.00      1.000      1.300    -1.808994
    2P  2  1  4.00      0.900      1.450    -0.701151
    Generation configuration:
    2S  1  0  2.00      1.000      1.300    -1.808989
    2S  1  0  0.00      1.000      1.300     1.000000
    2P  2  1  4.00      0.900      1.450    -0.701147
    2P  2  1  0.00      0.900      1.450     0.050000
    Pseudization used: troullier-martins
    <PP_INPUTFILE>
@input
title='O',
zed=8.,
rel=1,
config='[He] 2s2 2p4',
iswitch=3,
dft='SLA-PW-BEEX-BEEC'
/
@inputp
lpaw=.true.,
pseudotype=3,
file_pseudopw='O.beef-nl-kjpaw_psl.1.0.0.UPF',
author='ADC',
lloc=-1,
rcloc=1.1
which_augfun='PSQ',
rmatch_augfun_nc=.true.,
nlcc=.true.,
new_core_ps=.true.,
rcore=0.7,
tm=.true.
/
4
2S  1  0  2.00  0.00  1.00  1.30  0.0
2S  1  0  0.00  1.00  1.00  1.30  0.0
2P  2  1  4.00  0.00  0.90  1.45  0.0
2P  2  1  0.00  0.05  0.90  1.45  0.0
    </PP_INPUTFILE>
  </PP_INFO>
    <!-- END OF HUMAN READABLE SECTION -->
  <PP_HEADER generated="Generated using 'atomic' code by A. Dal Corso  v.7.2" author="ADC" date="31May2024" comment="" element=" O" pseudo_type="PAW" relativistic="scalar" is_ultrasoft="true" is_paw="true" is_coulomb="false" has_so="false" has_wfc="true" has_gipaw="false" paw_as_gipaw="false" core_correction="true" functional=" SLA  PW   BEEX BEEC" z_valence="6.00000000000000" total_psenergy="-42.1338467485276" wfc_cutoff="43.2630516786954" rho_cutoff="315.674375818108" l_max="1" l_max_rho="2" l_local="-1" mesh_size="1095" number_of_wfc="2" number_of_proj="4"/>
  <PP_MESH mesh="1095" dx="1.250000000000000E-002" xmin="-7.00000000000000" rmax="100.000000000000" zmesh="8.00000000000000">
    <PP_R>
   1.139852456943145E-04   1.154190035836278E-04   1.168707959270728E-04
   1.183408495701567E-04   1.198293942117525E-04   1.213366624399886E-04
   1.228628897685923E-04   1.244083146736889E-04   1.259731786310638E-04
   1.275577261538943E-04   1.291622048309546E-04   1.307868653653023E-04
   1.324319616134513E-04   1.340977506250371E-04   1.357844926829822E-04
   1.374924513441648E-04   1.392218934806004E-04   1.409730893211415E-04
   1.427463124937009E-04   1.445418400680072E-04   1.463599525988968E-04
   1.482009341701516E-04   1.500650724388876E-04   1.519526586805018E-04
   1.538639878341851E-04   1.557993585490062E-04   1.577590732305768E-04
   1.597434380883031E-04   1.617527631832310E-04   1.637873624764950E-04
   1.658475538783739E-04   1.679336592979659E-04   1.700460046934867E-04
   1.721849201232021E-04   1.743507397969998E-04   1.765438021286102E-04
   1.787644497884843E-04   1.810130297573369E-04   1.832898933803629E-04
   1.855953964221359E-04   1.879298991221965E-04   1.902937662513414E-04
   1.926873671686188E-04   1.951110758790415E-04   1.975652710920271E-04
   2.000503362805705E-04   2.025666597411633E-04   2.051146346544658E-04
   2.076946591467417E-04   2.103071363520676E-04   2.129524744753217E-04
   2.156310868559678E-04   2.183433920326400E-04   2.210898138085401E-04
   2.238707813176587E-04   2.266867290918269E-04   2.295380971286134E-04
   2.324253309600751E-04   2.353488817223722E-04   2.383092062262596E-04
   2.413067670284637E-04   2.443420325039584E-04   2.474154769191496E-04
   2.505275805059799E-04   2.536788295369668E-04   2.568697164011824E-04
   2.601007396811912E-04   2.633724042309543E-04   2.666852212547135E-04
   2.700397083868693E-04   2.734363897728606E-04   2.768757961510646E-04
   2.803584649357254E-04   2.838849403009259E-04   2.874557732656170E-04
   2.910715217797142E-04   2.947327508112791E-04   2.984400324347967E-04
   3.021939459205629E-04   3.059950778251979E-04   3.098440220832948E-04
   3.137413801002248E-04   3.176877608461073E-04   3.216837809509625E-04
   3.257300648010623E-04   3.298272446364902E-04   3.339759606499313E-04
   3.381768610867033E-04   3.424306023460460E-04   3.467378490836861E-04
   3.510992743156891E-04   3.555155595236209E-04   3.599873947610304E-04
   3.645154787612710E-04   3.691005190466808E-04   3.737432320391325E-04
   3.784443431719769E-04   3.832045870033929E-04   3.880247073311636E-04
   3.929054573088975E-04   3.978475995637084E-04   4.028519063153783E-04
   4.079191594970185E-04   4.130501508772477E-04   4.182456821839090E-04
   4.235065652293390E-04   4.288336220372168E-04   4.342276849710067E-04
   4.396895968640161E-04   4.452202111510912E-04   4.508203920019663E-04
   4.564910144562929E-04   4.622329645603665E-04   4.680471395055725E-04
   4.739344477685760E-04   4.798958092532704E-04   4.859321554345163E-04
   4.920444295036854E-04   4.982335865160363E-04   5.045005935399448E-04
   5.108464298080083E-04   5.172720868700546E-04   5.237785687480724E-04
   5.303668920930925E-04   5.370380863440425E-04   5.437931938885961E-04
   5.506332702260508E-04   5.575593841322502E-04   5.645726178265834E-04
   5.716740671410841E-04   5.788648416916557E-04   5.861460650514514E-04
   5.935188749264347E-04   6.009844233331487E-04   6.085438767787204E-04
   6.161984164431315E-04   6.239492383637771E-04   6.317975536223518E-04
   6.397445885340820E-04   6.477915848393406E-04   6.559397998976731E-04
   6.641905068842594E-04   6.725449949888526E-04   6.810045696172162E-04
   6.895705525950964E-04   6.982442823747625E-04   7.070271142441385E-04
   7.159204205385731E-04   7.249255908552683E-04   7.340440322704065E-04
   7.432771695590118E-04   7.526264454175699E-04   7.620933206894547E-04
   7.716792745931884E-04   7.813858049535702E-04   7.912144284357184E-04
   8.011666807820479E-04   8.112441170522359E-04   8.214483118662024E-04
   8.317808596501467E-04   8.422433748856834E-04   8.528374923621034E-04
   8.635648674318165E-04   8.744271762690021E-04   8.854261161315148E-04
   8.965634056260874E-04   9.078407849768614E-04   9.192600162973045E-04
   9.308228838655430E-04   9.425311944031586E-04   9.543867773574952E-04
   9.663914851875088E-04   9.785471936532217E-04   9.908558021088129E-04
   1.003319233799394E-03   1.015939436161526E-03   1.028718381127504E-03
   1.041658065433476E-03   1.054760510931442E-03   1.068027764905167E-03
   1.081461900390079E-03   1.095065016497179E-03   1.108839238741032E-03
   1.122786719371891E-03   1.136909637711977E-03   1.151210200496018E-03
   1.165690642216041E-03   1.180353225470526E-03   1.195200241317939E-03
   1.210234009634710E-03   1.225456879477728E-03   1.240871229451376E-03
   1.256479468079198E-03   1.272284034180235E-03   1.288287397250093E-03
   1.304492057846813E-03   1.320900547981582E-03   1.337515431514366E-03
   1.354339304554520E-03   1.371374795866435E-03   1.388624567280288E-03
   1.406091314107958E-03   1.423777765564172E-03   1.441686685192954E-03
   1.459820871299430E-03   1.478183157387077E-03   1.496776412600453E-03
   1.515603542173512E-03   1.534667487883556E-03   1.553971228510885E-03
   1.573517780304250E-03   1.593310197452134E-03   1.613351572559984E-03
   1.633645037133436E-03   1.654193762067616E-03   1.675000958142604E-03
   1.696069876525117E-03   1.717403809276518E-03   1.739006089867204E-03
   1.760880093697465E-03   1.783029238624907E-03   1.805456985498485E-03
   1.828166838699278E-03   1.851162346688052E-03   1.874447102559713E-03
   1.898024744604743E-03   1.921898956877679E-03   1.946073469772761E-03
   1.970552060606813E-03   1.995338554209451E-03   2.020436823520734E-03
   2.045850790196303E-03   2.071584425220157E-03   2.097641749525122E-03
   2.124026834621133E-03   2.150743803231423E-03   2.177796829936689E-03
   2.205190141827395E-03   2.232928019164256E-03   2.261014796047037E-03
   2.289454861091772E-03   2.318252658116486E-03   2.347412686835551E-03
   2.376939503562782E-03   2.406837721923366E-03   2.437112013574749E-03
   2.467767108936598E-03   2.498807797929929E-03   2.530238930725549E-03
   2.562065418501907E-03   2.594292234212468E-03   2.626924413362754E-03
   2.659967054797147E-03   2.693425321495596E-03   2.727304441380347E-03
   2.761609708132805E-03   2.796346482020700E-03   2.831520190735621E-03
   2.867136330241116E-03   2.903200465631447E-03   2.939718232001138E-03
   2.976695335325485E-03   3.014137553352109E-03   3.052050736503754E-03
   3.090440808792425E-03   3.129313768745018E-03   3.168675690340618E-03
   3.208532723959554E-03   3.248891097344418E-03   3.289757116573164E-03
   3.331137167044436E-03   3.373037714475311E-03   3.415465305911571E-03
   3.458426570750697E-03   3.501928221777728E-03   3.545977056214138E-03
   3.590579956779929E-03   3.635743892769060E-03   3.681475921138411E-03
   3.727783187610464E-03   3.774672927789813E-03   3.822152468293762E-03
   3.870229227897112E-03   3.918910718691361E-03   3.968204547258494E-03
   4.018118415859508E-03   4.068660123637929E-03   4.119837567838421E-03
   4.171658745040760E-03   4.224131752409320E-03   4.277264788958254E-03
   4.331066156832628E-03   4.385544262605630E-03   4.440707618592121E-03
   4.496564844178708E-03   4.553124667170529E-03   4.610395925155002E-03
   4.668387566882703E-03   4.727108653665635E-03   4.786568360793083E-03
   4.846775978965251E-03   4.907740915744977E-03   4.969472697027665E-03
   5.031980968529731E-03   5.095275497295778E-03   5.159366173224694E-03
   5.224263010614990E-03   5.289976149729540E-03   5.356515858380023E-03
   5.423892533531297E-03   5.492116702925928E-03   5.561199026729190E-03
   5.631150299194728E-03   5.701981450351176E-03   5.773703547710015E-03
   5.846327797994873E-03   5.919865548892616E-03   5.994328290826434E-03
   6.069727658751247E-03   6.146075433971698E-03   6.223383545982993E-03
   6.301664074334922E-03   6.380929250519302E-03   6.461191459881174E-03
   6.542463243554051E-03   6.624757300419479E-03   6.708086489091267E-03
   6.792463829924687E-03   6.877902507050904E-03   6.964415870437053E-03
   7.052017437972171E-03   7.140720897579412E-03   7.230540109354811E-03
   7.321489107732941E-03   7.413582103679844E-03   7.506833486913497E-03
   7.601257828152247E-03   7.696869881391529E-03   7.793684586209179E-03
   7.891717070099800E-03   7.990982650838450E-03   8.091496838874069E-03
   8.193275339753045E-03   8.296334056573200E-03   8.400689092468723E-03
   8.506356753126278E-03   8.613353549332823E-03   8.721696199555458E-03
   8.831401632553700E-03   8.942486990024657E-03   9.054969629281437E-03
   9.168867125965267E-03   9.284197276791738E-03   9.400978102331550E-03
   9.519227849826294E-03   9.638964996039593E-03   9.760208250144146E-03
   9.882976556645086E-03   1.000728909834007E-02   1.013316529931666E-02
   1.026062482798735E-02   1.038968760016282E-02   1.052037378216380E-02
   1.065270379397210E-02   1.078669831242132E-02   1.092237827442755E-02
   1.105976488026091E-02   1.119887959685809E-02   1.133974416117656E-02
   1.148238058359112E-02   1.162681115133294E-02   1.177305843197209E-02
   1.192114527694371E-02   1.207109482511860E-02   1.222293050641876E-02
   1.237667604547829E-02   1.253235546535047E-02   1.268999309126139E-02
   1.284961355441080E-02   1.301124179582084E-02   1.317490307023305E-02
   1.334062295005453E-02   1.350842732935366E-02   1.367834242790612E-02
   1.385039479529174E-02   1.402461131504297E-02   1.420101920884547E-02
   1.437964604079155E-02   1.456051972168712E-02   1.474366851341282E-02
   1.492912103333996E-02   1.511690625880209E-02   1.530705353162274E-02
   1.549959256270015E-02   1.569455343664966E-02   1.589196661650446E-02
   1.609186294847553E-02   1.629427366677146E-02   1.649923039847878E-02
   1.670676516850381E-02   1.691691040457659E-02   1.712969894231781E-02
   1.734516403036941E-02   1.756333933558977E-02   1.778425894831420E-02
   1.800795738768166E-02   1.823446960702843E-02   1.846383099934961E-02
   1.869607740282939E-02   1.893124510644082E-02   1.916937085561606E-02
   1.941049185798788E-02   1.965464578920346E-02   1.990187079881129E-02
   2.015220551622210E-02   2.040568905674480E-02   2.066236102769832E-02
   2.092226153460032E-02   2.118543118743377E-02   2.145191110699235E-02
   2.172174293130565E-02   2.199496882214520E-02   2.227163147161231E-02
   2.255177410880885E-02   2.283544050659184E-02   2.312267498841304E-02
   2.341352243524464E-02   2.370802829259192E-02   2.400623857759427E-02
   2.430819988621545E-02   2.461395940052426E-02   2.492356489606690E-02
   2.523706474933193E-02   2.555450794530926E-02   2.587594408514408E-02
   2.620142339388723E-02   2.653099672834289E-02   2.686471558501508E-02
   2.720263210815412E-02   2.754479909790424E-02   2.789127001855373E-02
   2.824209900688887E-02   2.859734088065281E-02   2.895705114711111E-02
   2.932128601172471E-02   2.969010238693227E-02   3.006355790104278E-02
   3.044171090724010E-02   3.082462049270082E-02   3.121234648782670E-02
   3.160494947559331E-02   3.200249080101627E-02   3.240503258073645E-02
   3.281263771272592E-02   3.322536988611583E-02   3.364329359114799E-02
   3.406647412925159E-02   3.449497762324665E-02   3.492887102767592E-02
   3.536822213926662E-02   3.581309960752377E-02   3.626357294545693E-02
   3.671971254044162E-02   3.718158966521758E-02   3.764927648902527E-02
   3.812284608888242E-02   3.860237246100250E-02   3.908793053235673E-02
   3.957959617238167E-02   4.007744620483384E-02   4.058155841979372E-02
   4.109201158582053E-02   4.160888546225996E-02   4.213226081170680E-02
   4.266221941262422E-02   4.319884407212182E-02   4.374221863889444E-02
   4.429242801632360E-02   4.484955817574397E-02   4.541369616987642E-02
   4.598493014643031E-02   4.656334936187664E-02   4.714904419539463E-02
   4.774210616299363E-02   4.834262793181267E-02   4.895070333459989E-02
   4.956642738437413E-02   5.018989628927085E-02   5.082120746757490E-02
   5.146045956294232E-02   5.210775245981357E-02   5.276318729902070E-02
   5.342686649359085E-02   5.409889374474842E-02   5.477937405811868E-02
   5.546841376013500E-02   5.616612051465272E-02   5.687260333977171E-02
   5.758797262487075E-02   5.831234014785606E-02   5.904581909262686E-02
   5.978852406676053E-02   6.054057111942033E-02   6.130207775948829E-02
   6.207316297392621E-02   6.285394724636764E-02   6.364455257594367E-02
   6.444510249634554E-02   6.525572209512702E-02   6.607653803324968E-02
   6.690767856487380E-02   6.774927355739842E-02   6.860145451175333E-02
   6.946435458294645E-02   7.033810860086949E-02   7.122285309136540E-02
   7.211872629756086E-02   7.302586820146700E-02   7.394442054585190E-02
   7.487452685638821E-02   7.581633246407921E-02   7.676998452796725E-02
   7.773563205812754E-02   7.871342593895128E-02   7.970351895272169E-02
   8.070606580348653E-02   8.172122314123094E-02   8.274914958635428E-02
   8.379000575445494E-02   8.484395428142683E-02   8.591115984887156E-02
   8.699178920983028E-02   8.808601121483921E-02   8.919399683831285E-02
   9.031591920525905E-02   9.145195361833026E-02   9.260227758521478E-02
   9.376707084637276E-02   9.494651540312110E-02   9.614079554607136E-02
   9.735009788392565E-02   9.857461137263461E-02   9.981452734492217E-02
   1.010700395401816E-01   1.023413441347478E-01   1.036286397725501E-01
   1.049321275961510E-01   1.062520112781748E-01   1.075884970531323E-01
   1.089417937496448E-01   1.103121128230745E-01   1.116996683885645E-01
   1.131046772544950E-01   1.145273589563598E-01   1.159679357910691E-01
   1.174266328516845E-01   1.189036780625893E-01   1.203993022151028E-01
   1.219137390035416E-01   1.234472250617352E-01   1.250000000000001E-01
   1.265723064425794E-01   1.281643900655537E-01   1.297764996352282E-01
   1.314088870470031E-01   1.330618073647325E-01   1.347355188605790E-01
   1.364302830553690E-01   1.381463647594560E-01   1.398840321140976E-01
   1.416435566333533E-01   1.434252132465091E-01   1.452292803410354E-01
   1.470560398060864E-01   1.489057770765448E-01   1.507787811776226E-01
   1.526753447700213E-01   1.545957641956607E-01   1.565403395239831E-01
   1.585093745988400E-01   1.605031770859678E-01   1.625220585210614E-01
   1.645663343584528E-01   1.666363240204004E-01   1.687323509470005E-01
   1.708547426467246E-01   1.730038307475940E-01   1.751799510489967E-01
   1.773834435741572E-01   1.796146526232656E-01   1.818739268272752E-01
   1.841616192023770E-01   1.864780872051589E-01   1.888236927884591E-01
   1.911988024579224E-01   1.936037873292667E-01   1.960390231862712E-01
   1.985048905394930E-01   2.010017746857229E-01   2.035300657681888E-01
   2.060901588375161E-01   2.086824539134554E-01   2.113073560473865E-01
   2.139652753856081E-01   2.166566272334245E-01   2.193818321200374E-01
   2.221413158642549E-01   2.249355096410262E-01   2.277648500488137E-01
   2.306297791778126E-01   2.335307446790279E-01   2.364681998342213E-01
   2.394426036267371E-01   2.424544208132194E-01   2.455041219962310E-01
   2.485921836977866E-01   2.517190884338097E-01   2.548853247895270E-01
   2.580913874958109E-01   2.613377775064821E-01   2.646250020765845E-01
   2.679535748416450E-01   2.713240158979304E-01   2.747368518837128E-01
   2.781926160615586E-01   2.816918484016512E-01   2.852350956661631E-01
   2.888229114946881E-01   2.924558564907490E-01   2.961344983093926E-01
   2.998594117458874E-01   3.036311788255361E-01   3.074503888946188E-01
   3.113176387124790E-01   3.152335325447687E-01   3.191986822578660E-01
   3.232137074144809E-01   3.272792353704628E-01   3.313959013728260E-01
   3.355643486590089E-01   3.397852285573808E-01   3.440592005890132E-01
   3.483869325707314E-01   3.527691007194627E-01   3.572063897578956E-01
   3.616994930214703E-01   3.662491125667128E-01   3.708559592809336E-01
   3.755207529933043E-01   3.802442225873331E-01   3.850271061147541E-01
   3.898701509108492E-01   3.947741137112211E-01   3.997397607700346E-01
   4.047678679797453E-01   4.098592209923344E-01   4.150146153420686E-01
   4.202348565698038E-01   4.255207603488526E-01   4.308731526124345E-01
   4.362928696827303E-01   4.417807584015589E-01   4.473376762626975E-01
   4.529644915458680E-01   4.586620834524058E-01   4.644313422426382E-01
   4.702731693749890E-01   4.761884776468328E-01   4.821781913371220E-01
   4.882432463508067E-01   4.943845903650724E-01   5.006031829774158E-01
   5.068999958555845E-01   5.132760128894018E-01   5.197322303445012E-01
   5.262696570179953E-01   5.328893143961024E-01   5.395922368137558E-01
   5.463794716162200E-01   5.532520793227420E-01   5.602111337922584E-01
   5.672577223911881E-01   5.743929461633364E-01   5.816179200019341E-01
   5.889337728238430E-01   5.963416477459507E-01   6.038427022637851E-01
   6.114381084323759E-01   6.191290530493897E-01   6.269167378405702E-01
   6.348023796475104E-01   6.427872106177860E-01   6.508724783974814E-01
   6.590594463261368E-01   6.673493936341474E-01   6.757436156426462E-01
   6.842434239659002E-01   6.928501467162532E-01   7.015651287116450E-01
   7.103897316857433E-01   7.193253345007167E-01   7.283733333626845E-01
   7.375351420398775E-01   7.468121920835409E-01   7.562059330516187E-01
   7.657178327352486E-01   7.753493773881085E-01   7.851020719586459E-01
   7.949774403252294E-01   8.049770255342578E-01   8.151023900412644E-01
   8.253551159550537E-01   8.357368052849091E-01   8.462490801909099E-01
   8.568935832373977E-01   8.676719776496298E-01   8.785859475736620E-01
   8.896371983394998E-01   9.008274567275589E-01   9.121584712384794E-01
   9.236320123663316E-01   9.352498728752604E-01   9.470138680796061E-01
   9.589258361275542E-01   9.709876382883472E-01   9.832011592431119E-01
   9.955683073793471E-01   1.008091015089109E+00   1.020771239070957E+00
   1.033610960635684E+00   1.046612186015909E+00   1.059776946679547E+00
   1.073107299647237E+00   1.086605327813751E+00   1.100273140273452E+00
   1.114112872649843E+00   1.128126687429266E+00   1.142316774298791E+00
   1.156685350488362E+00   1.171234661117242E+00   1.185966979544816E+00
   1.200884607725814E+00   1.215989876569986E+00   1.231285146306324E+00
   1.246772806851841E+00   1.262455278185007E+00   1.278335010723876E+00
   1.294414485708962E+00   1.310696215590947E+00   1.327182744423251E+00
   1.343876648259545E+00   1.360780535556268E+00   1.377897047580201E+00
   1.395228858821172E+00   1.412778677409949E+00   1.430549245541391E+00
   1.448543339902925E+00   1.466763772108402E+00   1.485213389137426E+00
   1.503895073780192E+00   1.522811745087935E+00   1.541966358829033E+00
   1.561361907950852E+00   1.581001423047404E+00   1.600887972832880E+00
   1.621024664621143E+00   1.641414644811253E+00   1.662061099379099E+00
   1.682967254375212E+00   1.704136376428846E+00   1.725571773258388E+00
   1.747276794188205E+00   1.769254830671976E+00   1.791509316822617E+00
   1.814043729948866E+00   1.836861591098619E+00   1.859966465609106E+00
   1.883361963663974E+00   1.907051740857396E+00   1.931039498765253E+00
   1.955328985523522E+00   1.979923996413928E+00   2.004828374456959E+00
   2.030046011012355E+00   2.055580846387133E+00   2.081436870451269E+00
   2.107618123261130E+00   2.134128695690733E+00   2.160972730070956E+00
   2.188154420836786E+00   2.215678015182706E+00   2.243547813726331E+00
   2.271768171180383E+00   2.300343497033132E+00   2.329278256237377E+00
   2.358576969908111E+00   2.388244216028957E+00   2.418284630167477E+00
   2.448702906199500E+00   2.479503797042542E+00   2.510692115398459E+00
   2.542272734505453E+00   2.574250588899504E+00   2.606630675185427E+00
   2.639418052817578E+00   2.672617844890419E+00   2.706235238939009E+00
   2.740275487749559E+00   2.774743910180206E+00   2.809645891992078E+00
   2.844986886690842E+00   2.880772416378824E+00   2.917008072617840E+00
   2.953699517302903E+00   2.990852483546894E+00   3.028472776576374E+00
   3.066566274638670E+00   3.105138929920356E+00   3.144196769477297E+00
   3.183745896176387E+00   3.223792489649134E+00   3.264342807257247E+00
   3.305403185070350E+00   3.346980038856017E+00   3.389079865082238E+00
   3.431709241932514E+00   3.474874830333710E+00   3.518583374996832E+00
   3.562841705470912E+00   3.607656737210129E+00   3.653035472654369E+00
   3.698985002323371E+00   3.745512505924628E+00   3.792625253475242E+00
   3.840330606437867E+00   3.888636018870959E+00   3.937549038593494E+00
   3.987077308364314E+00   4.037228567076337E+00   4.088010650965772E+00
   4.139431494836541E+00   4.191499133300119E+00   4.244221702030946E+00
   4.297607439037650E+00   4.351664685950256E+00   4.406401889323570E+00
   4.461827601956987E+00   4.517950484230869E+00   4.574779305459751E+00
   4.632322945262574E+00   4.690590394950127E+00   4.749590758929973E+00
   4.809333256129019E+00   4.869827221433998E+00   4.931082107150069E+00
   4.993107484477744E+00   5.055913045008427E+00   5.119508602238728E+00
   5.183904093103846E+00   5.249109579530251E+00   5.315135250007851E+00
   5.381991421181993E+00   5.449688539465441E+00   5.518237182670656E+00
   5.587648061662607E+00   5.657932022032348E+00   5.729100045791687E+00
   5.801163253089125E+00   5.874132903947413E+00   5.948020400022963E+00
   6.022837286387355E+00   6.098595253331305E+00   6.175306138191277E+00
   6.252981927199096E+00   6.331634757354833E+00   6.411276918323216E+00
   6.491920854353934E+00   6.573579166226059E+00   6.656264613216956E+00
   6.739990115095946E+00   6.824768754143036E+00   6.910613777193054E+00
   6.997538597705519E+00   7.085556797860478E+00   7.174682130680780E+00
   7.264928522181004E+00   7.356310073543426E+00   7.448841063321374E+00
   7.542535949670250E+00   7.637409372606672E+00   7.733476156295993E+00
   7.830751311368608E+00   7.929250037265418E+00   8.028987724612737E+00
   8.129979957627127E+00   8.232242516550469E+00   8.335791380115651E+00
   8.440642728043269E+00   8.546812943569769E+00   8.654318616007330E+00
   8.763176543335991E+00   8.873403734828367E+00   8.985017413707384E+00
   9.098035019837459E+00   9.212474212449481E+00   9.328352872900123E+00
   9.445689107465835E+00   9.564501250171986E+00   9.684807865657612E+00
   9.806627752076144E+00   9.929979944032675E+00   1.005488371555816E+01
   1.018135858312102E+01   1.030942430867663E+01   1.043910090275516E+01
   1.057040862758826E+01   1.070336800027508E+01   1.083799979598811E+01
   1.097432505121936E+01   1.111236506706729E+01   1.125214141256524E+01
   1.139367592805156E+01   1.153699072858224E+01   1.168210820738646E+01
   1.182905103936552E+01   1.197784218463587E+01   1.212850489211668E+01
   1.228106270316251E+01   1.243553945524173E+01   1.259195928566114E+01
   1.275034663533747E+01   1.291072625261636E+01   1.307312319713928E+01
   1.323756284375924E+01   1.340407088650557E+01   1.357267334259871E+01
   1.374339655651545E+01   1.391626720410529E+01   1.409131229675865E+01
   1.426855918562738E+01   1.444803556589847E+01   1.462976948112149E+01
   1.481378932759042E+01   1.500012385878068E+01   1.518880218984187E+01
   1.537985380214708E+01   1.557330854789943E+01   1.576919665479652E+01
   1.596754873075361E+01   1.616839576868612E+01   1.637176915135234E+01
   1.657770065625708E+01   1.678622246061694E+01   1.699736714638812E+01
   1.721116770535734E+01   1.742765754429691E+01   1.764687049018463E+01
   1.786884079548925E+01   1.809360314352262E+01   1.832119265385890E+01
   1.855164488782209E+01   1.878499585404262E+01   1.902128201408370E+01
   1.926054028813860E+01   1.950280806079939E+01   1.974812318689845E+01
   1.999652399742333E+01   2.024804930550604E+01   2.050273841248773E+01
   2.076063111405951E+01   2.102176770648070E+01   2.128618899287514E+01
   2.155393628960679E+01   2.182505143273554E+01   2.209957678455406E+01
   2.237755524020710E+01   2.265903023439392E+01   2.294404574815500E+01
   2.323264631574427E+01   2.352487703158756E+01   2.382078355732877E+01
   2.412041212896457E+01   2.442380956406887E+01   2.473102326910820E+01
   2.504210124684898E+01   2.535709210385813E+01   2.567604505809792E+01
   2.599900994661633E+01   2.632603723333432E+01   2.665717801693076E+01
   2.699248403882679E+01   2.733200769127052E+01   2.767580202552340E+01
   2.802392076014964E+01   2.837641828940976E+01   2.873334969175988E+01
   2.909477073845779E+01   2.946073790227733E+01   2.983130836633246E+01
   3.020654003301210E+01   3.058649153302758E+01   3.097122223457379E+01
   3.136079225260557E+01   3.175526245823088E+01   3.215469448822187E+01
   3.255915075464588E+01   3.296869445461741E+01   3.338338958017277E+01
   3.380330092826910E+01   3.422849411090882E+01   3.465903556539178E+01
   3.509499256469619E+01   3.553643322799012E+01   3.598342653127538E+01
   3.643604231816502E+01   3.689435131079657E+01   3.735842512088257E+01
   3.782833626089998E+01   3.830415815542054E+01   3.878596515258330E+01
   3.927383253571181E+01   3.976783653507726E+01   4.026805433980957E+01
   4.077456410995850E+01   4.128744498870611E+01   4.180677711473317E+01
   4.233264163474094E+01   4.286512071613055E+01   4.340429755984184E+01
   4.395025641335360E+01   4.450308258384743E+01   4.506286245153721E+01
   4.562968348316611E+01   4.620363424567361E+01   4.678480442003402E+01
   4.737328481526949E+01   4.796916738263903E+01   4.857254523000610E+01
   4.918351263638701E+01   4.980216506668199E+01   5.042859918659194E+01
   5.106291287772257E+01   5.170520525287860E+01   5.235557667155049E+01
   5.301412875559557E+01   5.368096440511679E+01   5.435618781454108E+01
   5.503990448889986E+01   5.573222126031465E+01   5.643324630468944E+01
   5.714308915861367E+01   5.786186073647745E+01   5.858967334780213E+01
   5.932664071478906E+01   6.007287799008867E+01   6.082850177479345E+01
   6.159363013665710E+01   6.236838262854275E+01   6.315288030710363E+01
   6.394724575169803E+01   6.475160308354280E+01   6.556607798510755E+01
   6.639079771975264E+01   6.722589115161462E+01   6.807148876574118E+01
   6.892772268847990E+01   6.979472670812325E+01   7.067263629581315E+01
   7.156158862670893E+01   7.246172260142080E+01   7.337317886771368E+01
   7.429609984248353E+01   7.523062973401028E+01   7.617691456449096E+01
   7.713510219285546E+01   7.810534233787018E+01   7.908778660153176E+01
   8.008258849275511E+01   8.108990345135980E+01   8.210988887235747E+01
   8.314270413054530E+01   8.418851060540868E+01   8.524747170633694E+01
   8.631975289815672E+01   8.740552172698573E+01   8.850494784641251E+01
   8.961820304400499E+01   9.074546126815267E+01   9.188689865524667E+01
   9.304269355720088E+01   9.421302656932025E+01   9.539808055851896E+01
   9.659804069189374E+01   9.781309446565697E+01   9.904343173443276E+01
    </PP_R>
    <PP_RAB>
   1.424815571178932E-06   1.442737544795347E-06   1.460884949088410E-06
   1.479260619626959E-06   1.497867427646906E-06   1.516708280499858E-06
   1.535786122107404E-06   1.555103933421111E-06   1.574664732888298E-06
   1.594471576923679E-06   1.614527560386933E-06   1.634835817066279E-06
   1.655399520168141E-06   1.676221882812964E-06   1.697306158537278E-06
   1.718655641802060E-06   1.740273668507505E-06   1.762163616514269E-06
   1.784328906171262E-06   1.806773000850090E-06   1.829499407486210E-06
   1.852511677126895E-06   1.875813405486095E-06   1.899408233506273E-06
   1.923299847927314E-06   1.947491981862577E-06   1.971988415382210E-06
   1.996792976103788E-06   2.021909539790388E-06   2.047342030956188E-06
   2.073094423479674E-06   2.099170741224573E-06   2.125575058668584E-06
   2.152311501540027E-06   2.179384247462498E-06   2.206797526607627E-06
   2.234555622356054E-06   2.262662871966712E-06   2.291123667254536E-06
   2.319942455276699E-06   2.349123739027457E-06   2.378672078141768E-06
   2.408592089607735E-06   2.438888448488019E-06   2.469565888650339E-06