<UPF version="2.0.1">
  <PP_INFO>
    Generated using "atomic" code by A. Dal Corso  v.7.2
    Author: ADC
    Generation date: 31May2024
    Pseudopotential type: PAW
    Element: Pt
    Functional:  SLA  PW   BEEX BEEC
    Suggested minimum cutoff for wavefunctions:  39. Ry
    Suggested minimum cutoff for charge density: 491. Ry
    The Pseudo was generated with a Scalar-Relativistic Calculation
    Local Potential by smoothing AE potential with Bessel fncs, cutoff radius:   2.4000
    Valence configuration: 
    nl pn  l   occ       Rcut    Rcut US       E pseu
    6S  1  0  1.00      2.000      2.200    -0.430561
    6P  2  1  0.00      2.300      2.500    -0.086173
    5D  3  2  9.00      1.000      2.200    -0.476082
    Generation configuration:
    6S  1  0  1.00      2.000      2.200    -0.430559
    6S  1  0  0.00      2.000      2.200     4.400000
    6P  2  1  0.00      2.300      2.500    -0.086172
    6P  2  1  0.00      2.300      2.500     6.400000
    5D  3  2  9.00      1.000      2.200    -0.476080
    5D  3  2  0.00      1.000      2.200     0.800000
    Pseudization used: troullier-martins
    <PP_INPUTFILE>
@input
title='Pt',
zed=78.,
rel=1,
config='[Xe] 4f14 6s1 6p0 5d9',
iswitch=3,
dft='SLA-PW-BEEX-BEEC'
/
@inputp
lpaw=.true.,
pseudotype=3,
file_pseudopw='Pt.beef-n-kjpaw_psl.1.0.0.UPF',
author='ADC',
lloc=-1,
rcloc=2.4,
which_augfun='PSQ',
rmatch_augfun_nc=.true.,
nlcc=.true.,
new_core_ps=.true.,
rcore=1.8,
tm=.true.
/
6
6S  1  0  1.00  0.00  2.00  2.20  0.0
6S  1  0  0.00  4.40  2.00  2.20  0.0
6P  2  1  0.00  0.00  2.30  2.50  0.0
6P  2  1  0.00  6.40  2.30  2.50  0.0
5D  3  2  9.00  0.00  1.00  2.20  0.0
5D  3  2  0.00  0.80  1.00  2.20  0.0
    </PP_INPUTFILE>
  </PP_INFO>
    <!-- END OF HUMAN READABLE SECTION -->
  <PP_HEADER generated="Generated using 'atomic' code by A. Dal Corso  v.7.2" author="ADC" date="31May2024" comment="" element="Pt" pseudo_type="PAW" relativistic="scalar" is_ultrasoft="true" is_paw="true" is_coulomb="false" has_so="false" has_wfc="true" has_gipaw="false" paw_as_gipaw="false" core_correction="true" functional=" SLA  PW   BEEX BEEC" z_valence="10.0000000000000" total_psenergy="-771.137060539912" wfc_cutoff="39.4225790406770" rho_cutoff="490.995805314475" l_max="2" l_max_rho="4" l_local="-1" mesh_size="1277" number_of_wfc="3" number_of_proj="6"/>
  <PP_MESH mesh="1277" dx="1.250000000000000E-002" xmin="-7.00000000000000" rmax="100.000000000000" zmesh="78.0000000000000">
    <PP_R>
   1.169079443018611E-05   1.183784652139772E-05   1.198674830021259E-05
   1.213752303283659E-05   1.229019427812846E-05   1.244478589128088E-05
   1.260132202754793E-05   1.275982714601938E-05   1.292032601344244E-05
   1.308284370809173E-05   1.324740562368765E-05   1.341403747336434E-05
   1.358276529368731E-05   1.375361544872175E-05   1.392661463415202E-05
   1.410178988145280E-05   1.427916856211286E-05   1.445877839191195E-05
   1.464064743525138E-05   1.482480410953920E-05   1.501127718963044E-05
   1.520009581232324E-05   1.539128948091155E-05   1.558488806979506E-05
   1.578092182914719E-05   1.597942138964166E-05   1.618041776723865E-05
   1.638394236803108E-05   1.659002699315190E-05   1.679870384374308E-05
   1.701000552598707E-05   1.722396505620163E-05   1.744061586599864E-05
   1.765999180750791E-05   1.788212715866665E-05   1.810705662857541E-05
   1.833481536292147E-05   1.856543894947046E-05   1.879896342362696E-05
   1.903542527406522E-05   1.927486144843041E-05   1.951730935911194E-05
   1.976280688908911E-05   2.001139239785041E-05   2.026310472738740E-05
   2.051798320826365E-05   2.077606766576034E-05   2.103739842609905E-05
   2.130201632274274E-05   2.156996270277617E-05   2.184127943336633E-05
   2.211600890830439E-05   2.239419405462974E-05   2.267587833933745E-05
   2.296110577617013E-05   2.324992093249507E-05   2.354236893626804E-05
   2.383849548308463E-05   2.413834684332022E-05   2.444196986935996E-05
   2.474941200291935E-05   2.506072128245727E-05   2.537594635068201E-05
   2.569513646215178E-05   2.601834149097095E-05   2.634561193858281E-05
   2.667699894166063E-05   2.701255428009787E-05   2.735233038509882E-05
   2.769638034737121E-05   2.804475792542160E-05   2.839751755395534E-05
   2.875471435238209E-05   2.911640413342829E-05   2.948264341185815E-05
   2.985348941330402E-05   3.022900008320811E-05   3.060923409587659E-05
   3.099425086364748E-05   3.138411054617414E-05   3.177887405982511E-05
   3.217860308720254E-05   3.258336008678023E-05   3.299320830266282E-05
   3.340821177446793E-05   3.382843534733233E-05   3.425394468204424E-05
   3.468480626530290E-05   3.512108742010728E-05   3.556285631627549E-05
   3.601018198109632E-05   3.646313431011497E-05   3.692178407805440E-05
   3.738620294987394E-05   3.785646349196726E-05   3.833263918350077E-05
   3.881480442789507E-05   3.930303456445055E-05   3.979740588011934E-05
   4.029799562142539E-05   4.080488200653419E-05   4.131814423747470E-05
   4.183786251251472E-05   4.236411803869208E-05   4.289699304450349E-05
   4.343657079275271E-05   4.398293559356070E-05   4.453617281753915E-05
   4.509636890912985E-05   4.566361140011192E-05   4.623798892327860E-05
   4.681959122628645E-05   4.740850918567862E-05   4.800483482108436E-05
   4.860866130959754E-05   4.922008300033543E-05   4.983919542918116E-05
   5.046609533371132E-05   5.110088066831142E-05   5.174365061948152E-05
   5.239450562133419E-05   5.305354737128765E-05   5.372087884595615E-05
   5.439660431724026E-05   5.508082936861974E-05   5.577366091165088E-05
   5.647520720267187E-05   5.718557785971797E-05   5.790488387964957E-05
   5.863323765549581E-05   5.937075299401597E-05   6.011754513348219E-05
   6.087373076168561E-05   6.163942803416910E-05   6.241475659268927E-05
   6.319983758391092E-05   6.399479367833612E-05   6.479974908947197E-05
   6.561482959323917E-05   6.644016254762467E-05   6.727587691258185E-05
   6.812210327018046E-05   6.897897384501052E-05   6.984662252484268E-05
   7.072518488154836E-05   7.161479819228333E-05   7.251560146093728E-05
   7.342773543985366E-05   7.435134265182240E-05   7.528656741234939E-05
   7.623355585220633E-05   7.719245594026357E-05   7.816341750661075E-05
   7.914659226596804E-05   8.014213384139181E-05   8.115019778827880E-05
   8.217094161867158E-05   8.320452482587034E-05   8.425110890935409E-05
   8.531085740001505E-05   8.638393588571112E-05   8.747051203713880E-05
   8.857075563403246E-05   8.968483859169252E-05   9.081293498784767E-05
   9.195522108985512E-05   9.311187538224219E-05   9.428307859459534E-05
   9.546901372979928E-05   9.666986609263166E-05   9.788582331871746E-05
   9.911707540384706E-05   1.003638147336638E-04   1.016262361137244E-04
   1.029045367999379E-04   1.041989165293873E-04   1.055095775515388E-04
   1.068367246598437E-04   1.081805652237377E-04   1.095413092210428E-04
   1.109191692707774E-04   1.123143606663773E-04   1.137271014093366E-04
   1.151576122432708E-04   1.166061166884079E-04   1.180728410765146E-04
   1.195580145862606E-04   1.210618692790284E-04   1.225846401351732E-04
   1.241265650907395E-04   1.256878850746388E-04   1.272688440462950E-04
   1.288696890337639E-04   1.304906701723318E-04   1.321320407435993E-04
   1.337940572150577E-04   1.354769792801622E-04   1.371810698989093E-04
   1.389065953389252E-04   1.406538252170702E-04   1.424230325415680E-04
   1.442144937546624E-04   1.460284887758125E-04   1.478653010454312E-04
   1.497252175691723E-04   1.516085289627772E-04   1.535155294974823E-04
   1.554465171460013E-04   1.574017936290827E-04   1.593816644626549E-04
   1.613864390055641E-04   1.634164305079111E-04   1.654719561599984E-04
   1.675533371418909E-04   1.696608986736017E-04   1.717949700659080E-04
   1.739558847718068E-04   1.761439804386172E-04   1.783595989607389E-04
   1.806030865330734E-04   1.828747937051187E-04   1.851750754357420E-04
   1.875042911486439E-04   1.898628047885181E-04   1.922509848779193E-04
   1.946692045748455E-04   1.971178417310440E-04   1.995972789510524E-04
   2.021079036519808E-04   2.046501081240463E-04   2.072242895918702E-04
   2.098308502765439E-04   2.124701974584776E-04   2.151427435410381E-04
   2.178489061149880E-04   2.205891080237357E-04   2.233637774294040E-04
   2.261733478797329E-04   2.290182583758212E-04   2.318989534407218E-04
   2.348158831888997E-04   2.377695033965626E-04   2.407602755728770E-04
   2.437886670320802E-04   2.468551509664991E-04   2.499602065204871E-04
   2.531043188652921E-04   2.562879792748645E-04   2.595116852026204E-04
   2.627759403591700E-04   2.660812547910224E-04   2.694281449602824E-04
   2.728171338253484E-04   2.762487509226253E-04   2.797235324492663E-04
   2.832420213469544E-04   2.868047673867385E-04   2.904123272549355E-04
   2.940652646401145E-04   2.977641503211740E-04   3.015095622565270E-04
   3.053020856744087E-04   3.091423131643189E-04   3.130308447696159E-04
   3.169682880812743E-04   3.209552583328224E-04   3.249923784964737E-04
   3.290802793804671E-04   3.332195997276327E-04   3.374109863151964E-04
   3.416550940558396E-04   3.459525861000319E-04   3.503041339396483E-04
   3.547104175128920E-04   3.591721253105362E-04   3.636899544835013E-04
   3.682646109517876E-04   3.728968095147753E-04   3.775872739629140E-04
   3.823367371908168E-04   3.871459413117756E-04   3.920156377737192E-04
   3.969465874766268E-04   4.019395608914217E-04   4.069953381803584E-04
   4.121147093189240E-04   4.172984742192748E-04   4.225474428552227E-04
   4.278624353887959E-04   4.332442822983917E-04   4.386938245085388E-04
   4.442119135212952E-04   4.497994115492954E-04   4.554571916504739E-04
   4.611861378644829E-04   4.669871453508235E-04   4.728611205287181E-04
   4.788089812187387E-04   4.848316567862190E-04   4.909300882864700E-04
   4.971052286118206E-04   5.033580426405105E-04   5.096895073874528E-04
   5.161006121568955E-04   5.225923586970029E-04   5.291657613563788E-04
   5.358218472425630E-04   5.425616563825169E-04   5.493862418851306E-04
   5.562966701057740E-04   5.632940208129156E-04   5.703793873568401E-04
   5.775538768404848E-04   5.848186102924283E-04   5.921747228420528E-04
   5.996233638969100E-04   6.071656973223196E-04   6.148029016232240E-04
   6.225361701283330E-04   6.303667111765844E-04   6.382957483059480E-04
   6.463245204446074E-04   6.544542821045438E-04   6.626863035775563E-04
   6.710218711337488E-04   6.794622872225107E-04   6.880088706760274E-04
   6.966629569153524E-04   7.054258981590671E-04   7.142990636345696E-04
   7.232838397920176E-04   7.323816305209652E-04   7.415938573697242E-04
   7.509219597674812E-04   7.603673952492147E-04   7.699316396834355E-04
   7.796161875027946E-04   7.894225519375928E-04   7.993522652522234E-04
   8.094068789845949E-04   8.195879641885589E-04   8.298971116793918E-04
   8.403359322823636E-04   8.509060570844307E-04   8.616091376890998E-04
   8.724468464744900E-04   8.834208768546485E-04   8.945329435441496E-04
   9.057847828260205E-04   9.171781528230418E-04   9.287148337724551E-04
   9.403966283041299E-04   9.522253617222295E-04   9.642028822904154E-04
   9.763310615206456E-04   9.886117944655993E-04   1.001047000014784E-03
   1.013638621194368E-03   1.026388625470776E-03   1.039299005058119E-03
   1.052371777229472E-03   1.065608984632084E-03   1.079012695606544E-03
   1.092585004509960E-03   1.106328032043212E-03   1.120243925582313E-03
   1.134334859513940E-03   1.148603035575189E-03   1.163050683197596E-03
   1.177680059855499E-03   1.192493451418763E-03   1.207493172509958E-03
   1.222681566866021E-03   1.238061007704472E-03   1.253633898094232E-03
   1.269402671331107E-03   1.285369791317997E-03   1.301537752949886E-03
   1.317909082503672E-03   1.334486338032906E-03   1.351272109767492E-03
   1.368269020518413E-03   1.385479726087555E-03   1.402906915682679E-03
   1.420553312337614E-03   1.438421673337741E-03   1.456514790650818E-03
   1.474835491363236E-03   1.493386638121756E-03   1.512171129580802E-03
   1.531191900855380E-03   1.550451923979701E-03   1.569954208371563E-03
   1.589701801302580E-03   1.609697788374324E-03   1.629945294000457E-03
   1.650447481894926E-03   1.671207555566304E-03   1.692228758818336E-03
   1.713514376256801E-03   1.735067733802727E-03   1.756892199212083E-03
   1.778991182601991E-03   1.801368136983566E-03   1.824026558801457E-03
   1.846969988480171E-03   1.870202010977274E-03   1.893726256343549E-03
   1.917546400290194E-03   1.941666164763162E-03   1.966089318524724E-03
   1.990819677742346E-03   2.015861106584970E-03   2.041217517826798E-03
   2.066892873458677E-03   2.092891185307159E-03   2.119216515661366E-03
   2.145872977907725E-03   2.172864737172694E-03   2.200196010973574E-03
   2.227871069877502E-03   2.255894238168738E-03   2.284269894524340E-03
   2.313002472698344E-03   2.342096462214547E-03   2.371556409068004E-03
   2.401386916435347E-03   2.431592645394043E-03   2.462178315650695E-03
   2.493148706278508E-03   2.524508656464027E-03   2.556263066263272E-03
   2.588416897367378E-03   2.620975173877873E-03   2.653942983091701E-03
   2.687325476296127E-03   2.721127869573630E-03   2.755355444616932E-03
   2.790013549554268E-03   2.825107599785050E-03   2.860643078826024E-03
   2.896625539168089E-03   2.933060603143879E-03   2.969953963806267E-03
   3.007311385817919E-03   3.045138706352028E-03   3.083441836004388E-03
   3.122226759716933E-03   3.161499537712904E-03   3.201266306443764E-03
   3.241533279548032E-03   3.282306748822181E-03   3.323593085203739E-03
   3.365398739766761E-03   3.407730244729829E-03   3.450594214476717E-03
   3.493997346589907E-03   3.537946422897092E-03   3.582448310530864E-03
   3.627509963001704E-03   3.673138421284489E-03   3.719340814918659E-03
   3.766124363122217E-03   3.813496375919752E-03   3.861464255284643E-03
   3.910035496295632E-03   3.959217688307948E-03   4.009018516139153E-03
   4.059445761269914E-03   4.110507303059881E-03   4.162211119978844E-03
   4.214565290853387E-03   4.267577996129227E-03   4.321257519149416E-03
   4.375612247448638E-03   4.430650674063777E-03   4.486381398860968E-03
   4.542813129879344E-03   4.599954684691689E-03   4.657814991782197E-03
   4.716403091941570E-03   4.775728139679655E-03   4.835799404655860E-03
   4.896626273127552E-03   4.958218249416684E-03   5.020584957394860E-03
   5.083736141987090E-03   5.147681670694446E-03   5.212431535135888E-03
   5.277995852609469E-03   5.344384867673187E-03   5.411608953745713E-03
   5.479678614727266E-03   5.548604486640864E-03   5.618397339294223E-03
   5.689068077962565E-03   5.760627745092587E-03   5.833087522027868E-03
   5.906458730755974E-03   5.980752835677545E-03   6.055981445397626E-03
   6.132156314539542E-03   6.209289345581572E-03   6.287392590716747E-03
   6.366478253736022E-03   6.446558691935143E-03   6.527646418045505E-03
   6.609754102189286E-03   6.692894573859181E-03   6.777080823923045E-03
   6.862326006653723E-03   6.948643441784453E-03   7.036046616590084E-03
   7.124549187994507E-03   7.214164984704563E-03   7.304908009370810E-03
   7.396792440775473E-03   7.489832636047898E-03   7.584043132907887E-03
   7.679438651937252E-03   7.776034098879918E-03   7.873844566971001E-03
   7.972885339295133E-03   8.073171891174491E-03   8.174719892586840E-03
   8.277545210614004E-03   8.381663911921121E-03   8.487092265267105E-03
   8.593846744046662E-03   8.701944028864289E-03   8.811401010140673E-03
   8.922234790751823E-03   9.034462688701457E-03   9.148102239826959E-03
   9.263171200539390E-03   9.379687550597976E-03   9.497669495919464E-03
   9.617135471422848E-03   9.738104143909857E-03   9.860594414981678E-03
   9.984625423992375E-03   1.011021655103945E-02   1.023738741999202E-02
   1.036615790155709E-02   1.049654811638439E-02   1.062857843821026E-02
   1.076226949704112E-02   1.089764218237690E-02   1.103471764647510E-02
   1.117351730765587E-02   1.131406285364866E-02   1.145637624498097E-02
   1.160047971840974E-02   1.174639579039587E-02   1.189414726062248E-02
   1.204375721555739E-02   1.219524903206044E-02   1.234864638103618E-02
   1.250397323113248E-02   1.266125385248566E-02   1.282051282051283E-02
   1.298177501975173E-02   1.314506564774909E-02   1.331041021899776E-02
   1.347783456892339E-02   1.364736485792128E-02   1.381902757544400E-02
   1.399284954414041E-02   1.416885792404677E-02   1.434708021683052E-02
   1.452754427008752E-02   1.471027828169324E-02   1.489531080420876E-02
   1.508267074934219E-02   1.527238739246613E-02   1.546449037719206E-02
   1.565900972000218E-02   1.585597581493955E-02   1.605541943835724E-02
   1.625737175372718E-02   1.646186431650951E-02   1.666892907908323E-02
   1.687859839573875E-02   1.709090502773337E-02   1.730588214841030E-02
   1.752356334838201E-02   1.774398264077887E-02   1.796717446656377E-02
   1.819317369991356E-02   1.842201565366827E-02   1.865373608484874E-02
   1.888837120024379E-02   1.912595766206758E-02   1.936653259368812E-02
   1.961013358542794E-02   1.985679870043761E-02   2.010656648064320E-02
   2.035947595276851E-02   2.061556663443312E-02   2.087487854032706E-02
   2.113745218846319E-02   2.140332860650825E-02   2.167254933819349E-02
   2.194515644980596E-02   2.222119253676149E-02   2.250070073026025E-02
   2.278372470402614E-02   2.307030868113089E-02   2.336049744090397E-02
   2.365433632592950E-02   2.395187124913107E-02   2.425314870094577E-02
   2.455821575658842E-02   2.486712008340711E-02   2.517990994833138E-02
   2.549663422541401E-02   2.581734240346766E-02   2.614208459379764E-02
   2.647091153803189E-02   2.680387461604944E-02   2.714102585400866E-02
   2.748241793247641E-02   2.782810419465953E-02   2.817813865473978E-02
   2.853257600631370E-02   2.889147163093858E-02   2.925488160678595E-02
   2.962286271740391E-02   2.999547246058964E-02   3.037276905737360E-02
   3.075481146111666E-02   3.114165936672166E-02   3.153337321996091E-02
   3.193001422692092E-02   3.233164436356602E-02   3.273832638542216E-02
   3.315012383738266E-02   3.356710106363721E-02   3.398932321772574E-02
   3.441685627271886E-02   3.484976703152624E-02   3.528812313733468E-02
   3.573199308417759E-02   3.618144622763720E-02   3.663655279568161E-02
   3.709738389963797E-02   3.756401154530388E-02   3.803650864419832E-02
   3.851494902495429E-02   3.899940744485468E-02   3.948995960151324E-02
   3.998668214470248E-02   4.048965268833037E-02   4.099894982256765E-02
   4.151465312612772E-02   4.203684317870097E-02   4.256560157354550E-02
   4.310101093023629E-02   4.364315490757463E-02   4.419211821665995E-02
   4.474798663412619E-02   4.531084701554450E-02   4.588078730899462E-02
   4.645789656880697E-02   4.704226496947751E-02   4.763398381975777E-02
   4.823314557692195E-02   4.883984386121362E-02   4.945417347047405E-02
   5.007623039495453E-02   5.070611183231512E-02   5.134391620281187E-02
   5.198974316467534E-02   5.264369362968224E-02   5.330586977892320E-02
   5.397637507876875E-02   5.465531429703615E-02   5.534279351935957E-02
   5.603892016576616E-02   5.674380300746072E-02   5.745755218382138E-02
   5.818027921960903E-02   5.891209704239347E-02   5.965312000019837E-02
   6.040346387936851E-02   6.116324592266160E-02   6.193258484756770E-02
   6.271160086485907E-02   6.350041569737330E-02   6.429915259903285E-02
   6.510793637410363E-02   6.592689339669600E-02   6.675615163051092E-02
   6.759584064883455E-02   6.844609165478434E-02   6.930703750180986E-02
   7.017881271445130E-02   7.106155350935930E-02   7.195539781657898E-02
   7.286048530110187E-02   7.377695738468890E-02   7.470495726796764E-02
   7.564462995280795E-02   7.659612226497856E-02   7.755958287708910E-02
   7.853516233182037E-02   7.952301306544703E-02   8.052328943165599E-02
   8.153614772566456E-02   8.256174620864182E-02   8.360024513243737E-02
   8.465180676462089E-02   8.571659541383683E-02   8.679477745547794E-02
   8.788652135768182E-02   8.899199770765434E-02   9.011137923832431E-02
   9.124484085533331E-02   9.239255966436502E-02   9.355471499881840E-02
   9.473148844782889E-02   9.592306388464210E-02   9.712962749534422E-02
   9.835136780795428E-02   9.958847572188177E-02   1.008411445377551E-01
   1.021095699876253E-01   1.033939502655497E-01   1.046944860585597E-01
   1.060113805780189E-01   1.073448395913752E-01   1.086950714543125E-01
   1.100622871433064E-01   1.114467002885899E-01   1.128485272075335E-01
   1.142679869384454E-01   1.157053012747965E-01   1.171606947998760E-01
   1.186343949218833E-01   1.201266319094607E-01   1.216376389276735E-01
   1.231676520744424E-01   1.247169104174344E-01   1.262856560314178E-01
   1.278741340360862E-01   1.294825926343597E-01   1.311112831511667E-01
   1.327604600727141E-01   1.344303810862510E-01   1.361213071203335E-01
   1.378335023855944E-01   1.395672344160275E-01   1.413227741107898E-01
   1.431003957765304E-01   1.449003771702511E-01   1.467229995427068E-01
   1.485685476823513E-01   1.504373099598361E-01   1.523295783730693E-01
   1.542456485928402E-01   1.561858200090190E-01   1.581503957773367E-01
   1.601396828667540E-01   1.621539921074261E-01   1.641936382392698E-01
   1.662589399611428E-01   1.683502199806413E-01   1.704678050645229E-01
   1.726120260897653E-01   1.747832180952662E-01   1.769817203341936E-01
   1.792078763269954E-01   1.814620339150745E-01   1.837445453151402E-01
   1.860557671742426E-01   1.883960606254994E-01   1.907657913445236E-01
   1.931653296065614E-01   1.955950503443483E-01   1.980553332066926E-01
   2.005465626177972E-01   2.030691278373260E-01   2.056234230212266E-01
   2.082098472833185E-01   2.108288047576546E-01   2.134807046616686E-01
   2.161659613601159E-01   2.188849944298187E-01   2.216382287252263E-01
   2.244260944447986E-01   2.272490271982263E-01   2.301074680744955E-01
   2.330018637108086E-01   2.359326663623725E-01   2.389003339730643E-01
   2.419053302469858E-01   2.449481247209187E-01   2.480291928376900E-01
   2.511490160204616E-01   2.543080817479530E-01   2.575068836306112E-01
   2.607459214877387E-01   2.640257014255902E-01   2.673467359164541E-01
   2.707095438787260E-01   2.741146507579917E-01   2.775625886091291E-01
   2.810538961794419E-01   2.845891189928416E-01   2.881688094350849E-01
   2.917935268400864E-01   2.954638375773153E-01   2.991803151402913E-01
   3.029435402361952E-01   3.067541008766045E-01   3.106125924693717E-01
   3.145196179116585E-01   3.184757876841391E-01   3.224817199463894E-01
   3.265380406334756E-01   3.306453835537573E-01   3.348043904879228E-01
   3.390157112892667E-01   3.432800039852325E-01   3.475979348802296E-01
   3.519701786597451E-01   3.563974184957651E-01   3.608803461535212E-01
   3.654196620995807E-01   3.700160756112953E-01   3.746703048876276E-01
   3.793830771613714E-01   3.841551288127824E-01   3.889872054846402E-01
   3.938800621987556E-01   3.988344634739446E-01   4.038511834454865E-01
   4.089310059860835E-01   4.140747248283422E-01   4.192831436887971E-01
   4.245570763934913E-01   4.298973470051404E-01   4.353047899518919E-01
   4.407802501577077E-01   4.463245831743852E-01   4.519386553152380E-01
   4.576233437904602E-01   4.633795368441916E-01   4.692081338933078E-01
   4.751100456679563E-01   4.810861943538592E-01   4.871375137364075E-01
   4.932649493465661E-01   4.994694586086152E-01   5.057520109897506E-01
   5.121135881515635E-01   5.185551841034284E-01   5.250778053578182E-01
   5.316824710875740E-01   5.383702132851540E-01   5.451420769238821E-01
   5.519991201212300E-01   5.589424143041478E-01   5.659730443764776E-01
   5.730921088884725E-01   5.803007202084459E-01   5.876000046965832E-01
   5.949911028809358E-01   6.024751696356321E-01   6.100533743613296E-01
   6.177269011679338E-01   6.254969490596211E-01   6.333647321221823E-01
   6.413314797127279E-01   6.493984366517778E-01   6.575668634177657E-01
   6.658380363439932E-01   6.742132478180574E-01   6.826938064837903E-01
   6.912810374457380E-01   6.999762824762088E-01   7.087809002249287E-01
   7.176962664313353E-01   7.267237741395361E-01   7.358648339159775E-01
   7.451208740698466E-01   7.544933408762489E-01   7.639836988021922E-01
   7.735934307354102E-01   7.833240382160689E-01   7.931770416713838E-01
   8.031539806531905E-01   8.132564140785045E-01   8.234859204731012E-01
   8.338440982181669E-01   8.443325658000481E-01   8.549529620631438E-01
   8.657069464659762E-01   8.765961993404892E-01   8.876224221545980E-01
   8.987873377780503E-01   9.100926907516274E-01   9.215402475597317E-01
   9.331317969064060E-01   9.448691499948185E-01   9.567541408102690E-01
   9.687886264067523E-01   9.809744871971268E-01   9.933136272469346E-01
   1.005807974571912E+00   1.018459481439249E+00   1.031270124672632E+00
   1.044241905961130E+00   1.057376852171962E+00   1.070677015667196E+00
   1.084144474624437E+00   1.097781333361547E+00   1.111589722665447E+00
   1.125571800125062E+00   1.139729750468440E+00   1.154065785904127E+00
   1.168582146466826E+00   1.183281100367409E+00   1.198164944347329E+00
   1.213236004037489E+00   1.228496634321628E+00   1.243949219704275E+00
   1.259596174683334E+00   1.275439944127357E+00   1.291483003657553E+00
   1.307727860034612E+00   1.324177051550395E+00   1.340833148424541E+00
   1.357698753206076E+00   1.374776501180059E+00   1.392069060779355E+00
   1.409579134001585E+00   1.427309456831312E+00   1.445262799667554E+00
   1.463441967756654E+00   1.481849801630612E+00   1.500489177550922E+00
   1.519363007957991E+00   1.538474241926224E+00   1.557825865624807E+00
   1.577420902784316E+00   1.597262415169173E+00   1.617353503056054E+00
   1.637697305718320E+00   1.658297001916525E+00   1.679155810395112E+00
   1.700276990385342E+00   1.721663842114558E+00   1.743319707321859E+00
   1.765247969780240E+00   1.787452055825324E+00   1.809935434890731E+00
   1.832701620050180E+00   1.855754168566423E+00   1.879096682447067E+00
   1.902732809007394E+00   1.926666241440269E+00   1.950900719393200E+00
   1.975440029552677E+00   2.000288006235835E+00   2.025448531989585E+00
   2.050925538197265E+00   2.076723005692927E+00   2.102844965383357E+00
   2.129295498877899E+00   2.156078739126225E+00   2.183198871064117E+00
   2.210660132267363E+00   2.238466813613901E+00   2.266623259954262E+00
   2.295133870790472E+00   2.324003100963479E+00   2.353235461349231E+00
   2.382835519563515E+00   2.412807900675647E+00   2.443157287931156E+00
   2.473888423483546E+00   2.505006109135269E+00   2.536515207088020E+00
   2.568420640702459E+00   2.600727395267501E+00   2.633440518779274E+00
   2.666565122729880E+00   2.700106382906084E+00   2.734069540198026E+00
   2.768459901418132E+00   2.803282840130310E+00   2.838543797489579E+00
   2.874248283092270E+00   2.910401875836899E+00   2.947010224795885E+00
   2.984079050098234E+00   3.021614143823316E+00   3.059621370905893E+00
   3.098106670052523E+00   3.137076054669495E+00   3.176535613802440E+00
   3.216491513087751E+00   3.256949995715988E+00   3.297917383407371E+00
   3.339400077399577E+00   3.381404559447939E+00   3.423937392838233E+00
   3.467005223412215E+00   3.510614780606033E+00   3.554772878501721E+00
   3.599486416891917E+00   3.644762382357960E+00   3.690607849361578E+00
   3.737029981350259E+00   3.784036031876571E+00   3.831633345731546E+00
   3.879829360092306E+00   3.928631605684158E+00   3.978047707957262E+00
   4.028085388278135E+00   4.078752465136129E+00   4.130056855365083E+00
   4.182006575380360E+00   4.234609742431396E+00   4.287874575870068E+00
   4.341809398434969E+00   4.396422637551851E+00   4.451722826650445E+00
   4.507718606497805E+00   4.564418726548454E+00   4.621832046311509E+00
   4.679967536734986E+00   4.738834281607550E+00   4.798441478977848E+00
   4.858798442591742E+00   4.919914603347593E+00   4.981799510769856E+00
   5.044462834501232E+00   5.107914365813538E+00   5.172164019137635E+00
   5.237221833612571E+00   5.303097974654215E+00   5.369802735543640E+00
   5.437346539035444E+00   5.505739938986338E+00   5.574993622004214E+00
   5.645118409117935E+00   5.716125257468168E+00   5.788025262019429E+00
   5.860829657293710E+00   5.934549819125892E+00   6.009197266441244E+00
   6.084783663055288E+00   6.161320819496274E+00   6.238820694850610E+00
   6.317295398631497E+00   6.396757192671052E+00   6.477218493036269E+00
   6.558691871969028E+00   6.641190059850544E+00   6.724725947190518E+00
   6.809312586641297E+00   6.894963195037397E+00   6.981691155460633E+00
   7.069510019331272E+00   7.158433508525461E+00   7.248475517519298E+00
   7.339650115559889E+00   7.431971548863672E+00   7.525454242842429E+00
   7.620112804357285E+00   7.715962024001054E+00   7.813016878409329E+00
   7.911292532600560E+00   8.010804342345660E+00   8.111567856567360E+00
   8.213598819769755E+00   8.316913174498442E+00   8.421527063831535E+00
   8.527456833902082E+00   8.634719036452172E+00   8.743330431419173E+00
   8.853307989554535E+00   8.964668895075459E+00   9.077430548350000E+00
   9.191610568615896E+00   9.307226796733607E+00   9.424297297974018E+00
   9.542840364841116E+00   9.662874519930282E+00   9.784418518822458E+00
   9.907491353014743E+00   1.003211225288790E+01   1.015830069071105E+01
   1.028607638368436E+01   1.041545929701979E+01   1.054646964706080E+01
   1.067912790444113E+01   1.081345479728338E+01   1.094947131443785E+01
   1.108719870876207E+01   1.122665850044161E+01   1.136787248035267E+01
   1.151086271346690E+01   1.165565154229914E+01   1.180226159039847E+01
   1.195071576588318E+01   1.210103726502024E+01   1.225324957584971E+01
   1.240737648185484E+01   1.256344206567826E+01   1.272147071288495E+01
   1.288148711577258E+01   1.304351627722963E+01   1.320758351464224E+01
   1.337371446385005E+01   1.354193508315186E+01   1.371227165736171E+01
   1.388475080191585E+01   1.405939946703153E+01   1.423624494191801E+01
   1.441531485904052E+01   1.459663719843795E+01   1.478024029209473E+01
   1.496615282836777E+01   1.515440385646913E+01   1.534502279100492E+01
   1.553803941657151E+01   1.573348389240932E+01   1.593138675711534E+01