<UPF version="2.0.1">
  <PP_INFO>
    Generated using "atomic" code by A. Dal Corso  v.7.2
    Author: ADC
    Generation date: 31May2024
    Pseudopotential type: PAW
    Element: Sb
    Functional:  SLA  PW   BEEX BEEC
    Suggested minimum cutoff for wavefunctions:  47. Ry
    Suggested minimum cutoff for charge density: 246. Ry
    The Pseudo was generated with a Scalar-Relativistic Calculation
    Local Potential by smoothing AE potential with Bessel fncs, cutoff radius:   1.9000
    Valence configuration: 
    nl pn  l   occ       Rcut    Rcut US       E pseu
    5S  1  0  2.00      1.700      1.800    -0.961121
    5P  2  1  3.00      2.000      2.100    -0.371300
    4D  3  2 10.00      1.300      1.600    -2.516725
    Generation configuration:
    5S  1  0  2.00      1.700      1.800    -0.961116
    5S  1  0  0.00      1.700      1.800     6.000000
    5P  2  1  3.00      2.000      2.100    -0.371300
    5P  2  1  0.00      2.000      2.100     6.000000
    4D  3  2 10.00      1.300      1.600    -2.516722
    4D  3  2  0.00      1.300      1.600     4.050000
    Pseudization used: troullier-martins
    <PP_INPUTFILE>
@input
title='Sb',
zed=51.,
rel=1,
config='[Kr] 5s2 5p3 4d10',
iswitch=3,
dft='SLA-PW-BEEX-BEEC'
/
@inputp
lpaw=.true.,
pseudotype=3,
file_pseudopw='Sb.beef-dn-kjpaw_psl.1.0.0.UPF',
author='ADC',
lloc=-1,
rcloc=1.9,
which_augfun='PSQ',
rmatch_augfun_nc=.true.,
nlcc=.true.,
new_core_ps=.true.,
rcore=1.2,
tm=.true.
/
6
5S  1  0  2.00  0.00  1.70  1.80  0.0
5S  1  0  0.00  6.00  1.70  1.80  0.0
5P  2  1  3.00  0.00  2.00  2.10  0.0
5P  2  1  0.00  6.00  2.00  2.10  0.0
4D  3  2 10.00  0.00  1.30  1.60  0.0
4D  3  2  0.00  4.05  1.30  1.60  0.0
    </PP_INPUTFILE>
  </PP_INFO>
    <!-- END OF HUMAN READABLE SECTION -->
  <PP_HEADER generated="Generated using 'atomic' code by A. Dal Corso  v.7.2" author="ADC" date="31May2024" comment="" element="Sb" pseudo_type="PAW" relativistic="scalar" is_ultrasoft="true" is_paw="true" is_coulomb="false" has_so="false" has_wfc="true" has_gipaw="false" paw_as_gipaw="false" core_correction="true" functional=" SLA  PW   BEEX BEEC" z_valence="15.0000000000000" total_psenergy="-487.807479736556" wfc_cutoff="47.0711779676246" rho_cutoff="246.237861957455" l_max="2" l_max_rho="4" l_local="-1" mesh_size="1243" number_of_wfc="3" number_of_proj="6"/>
  <PP_MESH mesh="1243" dx="1.250000000000000E-002" xmin="-7.00000000000000" rmax="100.000000000000" zmesh="51.0000000000000">
    <PP_R>
   1.788003854028463E-05   1.810494173860828E-05   1.833267387091338E-05
   1.856327052080890E-05   1.879676771949058E-05   1.903320195137076E-05
   1.927261015977919E-05   1.951502975273551E-05   1.976049860879432E-05
   2.000905508296382E-05   2.026073801269877E-05   2.051558672396899E-05
   2.077364103740412E-05   2.103494127451562E-05   2.129952826399721E-05
   2.156744334810428E-05   2.183872838911379E-05   2.211342577586534E-05
   2.239157843038446E-05   2.267322981458937E-05   2.295842393708185E-05
   2.324720536002378E-05   2.353961920610002E-05   2.383571116556892E-05
   2.413552750340159E-05   2.443911506651077E-05   2.474652129107087E-05
   2.505779420992989E-05   2.537298246011467E-05   2.569213529043059E-05
   2.601530256915670E-05   2.634253479183778E-05   2.667388308917439E-05
   2.700939923501210E-05   2.734913565443135E-05   2.769314543193885E-05
   2.804148231976224E-05   2.839420074624893E-05   2.875135582437065E-05
   2.911300336033503E-05   2.947919986230534E-05   2.985000254923003E-05
   3.022546935978334E-05   3.060565896141828E-05   3.099063075953367E-05
   3.138044490675617E-05   3.177516231233935E-05   3.217484465168090E-05
   3.257955437595949E-05   3.298935472189296E-05   3.340430972161910E-05
   3.382448421270083E-05   3.424994384825725E-05   3.468075510722198E-05
   3.511698530473078E-05   3.555870260263951E-05   3.600597602017465E-05
   3.645887544471767E-05   3.691747164272504E-05   3.738183627078582E-05
   3.785204188681783E-05   3.832816196140523E-05   3.881027088927836E-05
   3.929844400093802E-05   3.979275757442616E-05   4.029328884724430E-05
   4.080011602842214E-05   4.131331831073793E-05   4.183297588309231E-05
   4.235916994303833E-05   4.289198270946834E-05   4.343149743546111E-05
   4.397779842129026E-05   4.453097102759622E-05   4.509110168872423E-05
   4.565827792622968E-05   4.623258836255358E-05   4.681412273487007E-05
   4.740297190910791E-05   4.799922789414869E-05   4.860298385620310E-05
   4.921433413336860E-05   4.983337425036977E-05   5.046020093348432E-05
   5.109491212565683E-05   5.173760700180238E-05   5.238838598430295E-05
   5.304735075869856E-05   5.371460428957585E-05   5.439025083665664E-05
   5.507439597108849E-05   5.576714659194054E-05   5.646861094290673E-05
   5.717889862921898E-05   5.789812063477347E-05   5.862638933947177E-05
   5.936381853678069E-05   6.011052345151261E-05   6.086662075782958E-05
   6.163222859747413E-05   6.240746659822876E-05   6.319245589260836E-05
   6.398731913678722E-05   6.479218052976435E-05   6.560716583277004E-05
   6.643240238891592E-05   6.726801914309284E-05   6.811414666211869E-05
   6.897091715513977E-05   6.983846449428882E-05   7.071692423560255E-05
   7.160643364020281E-05   7.250713169574376E-05   7.341915913812902E-05
   7.434265847350211E-05   7.527777400051301E-05   7.622465183286531E-05
   7.718343992214674E-05   7.815428808094687E-05   7.913734800626585E-05
   8.013277330321699E-05   8.114071950902818E-05   8.216134411734469E-05
   8.319480660283805E-05   8.424126844612431E-05   8.530089315899547E-05
   8.637384630996874E-05   8.746029555015689E-05   8.856041063946406E-05
   8.967436347311124E-05   9.080232810849502E-05   9.194448079238453E-05
   9.310099998846035E-05   9.427206640519980E-05   9.545786302411301E-05
   9.665857512833436E-05   9.787439033157288E-05   9.910549860742773E-05
   1.003520923190717E-04   1.016143662493083E-04   1.028925176310075E-04
   1.041867461779230E-04   1.054972541158984E-04   1.068242462144653E-04
   1.081679298188387E-04   1.095285148823157E-04   1.109062139990806E-04
   1.123012424374232E-04   1.137138181733754E-04   1.151441619247696E-04
   1.165924971857273E-04   1.180590502615796E-04   1.195440503042282E-04
   1.210477293479511E-04   1.225703223456581E-04   1.241120672056029E-04
   1.256732048285565E-04   1.272539791454488E-04   1.288546371554827E-04
   1.304754289647289E-04   1.321166078252052E-04   1.337784301744476E-04
   1.354611556755791E-04   1.371650472578827E-04   1.388903711578847E-04
   1.406373969609549E-04   1.424063976434293E-04   1.441976496152635E-04
   1.460114327632224E-04   1.478480304946131E-04   1.497077297815679E-04
   1.515908212058837E-04   1.534975990044269E-04   1.554283611151079E-04
   1.573834092234344E-04   1.593630488096512E-04   1.613675891964712E-04
   1.633973435974080E-04   1.654526291657164E-04   1.675337670439478E-04
   1.696410824141301E-04   1.717749045485770E-04   1.739355668613384E-04
   1.761234069602966E-04   1.783387666999180E-04   1.805819922346694E-04
   1.828534340731044E-04   1.851534471326316E-04   1.874823907949708E-04
   1.898406289623075E-04   1.922285301141535E-04   1.946464673649218E-04
   1.970948185222272E-04   1.995739661459192E-04   2.020842976078577E-04
   2.046262051524412E-04   2.072000859578952E-04   2.098063421983319E-04
   2.124453811065914E-04   2.151176150378721E-04   2.178234615341629E-04
   2.205633433894836E-04   2.233376887159486E-04   2.261469310106594E-04
   2.289915092234401E-04   2.318718678254239E-04   2.347884568785024E-04
   2.377417321056490E-04   2.407321549621264E-04   2.437601927075898E-04
   2.468263184790980E-04   2.499310113650405E-04   2.530747564799975E-04
   2.562580450405390E-04   2.594813744419790E-04   2.627452483360947E-04
   2.660501767098222E-04   2.693966759649440E-04   2.727852689987771E-04
   2.762164852858769E-04   2.796908609607697E-04   2.832089389017231E-04
   2.867712688155730E-04   2.903784073236160E-04   2.940309180485824E-04
   2.977293717027048E-04   3.014743461768908E-04   3.052664266310214E-04
   3.091062055853823E-04   3.129942830132472E-04   3.169312664346250E-04
   3.209177710111848E-04   3.249544196423776E-04   3.290418430627642E-04
   3.331806799405699E-04   3.373715769774781E-04   3.416151890096768E-04
   3.459121791101797E-04   3.502632186924324E-04   3.546689876152215E-04
   3.591301742889055E-04   3.636474757829782E-04   3.682215979349884E-04
   3.728532554608285E-04   3.775431720664104E-04   3.822920805607450E-04
   3.871007229704467E-04   3.919698506556751E-04   3.969002244275371E-04
   4.018926146669659E-04   4.069478014450930E-04   4.120665746451378E-04
   4.172497340858270E-04   4.224980896463681E-04   4.278124613929955E-04
   4.331936797071067E-04   4.386425854150118E-04   4.441600299193132E-04
   4.497468753319398E-04   4.554039946088544E-04   4.611322716864531E-04
   4.669326016196839E-04   4.728058907218995E-04   4.787530567064713E-04
   4.847750288301843E-04   4.908727480384343E-04   4.970471671122539E-04
   5.032992508171850E-04   5.096299760540264E-04   5.160403320114767E-04
   5.225313203206958E-04   5.291039552118135E-04   5.357592636724033E-04
   5.424982856079525E-04   5.493220740043495E-04   5.562316950924138E-04
   5.632282285144987E-04   5.703127674931858E-04   5.774864190021037E-04
   5.847503039388963E-04   5.921055573003628E-04   5.995533283598058E-04
   6.070947808466058E-04   6.147310931280567E-04   6.224634583934893E-04
   6.302930848407072E-04   6.382211958647732E-04   6.462490302491641E-04
   6.543778423593349E-04   6.626089023387168E-04   6.709434963071771E-04
   6.793829265619809E-04   6.879285117812753E-04   6.965815872301365E-04
   7.053435049692091E-04   7.142156340659653E-04   7.231993608086278E-04
   7.322960889227769E-04   7.415072397906879E-04   7.508342526734247E-04
   7.602785849357257E-04   7.698417122737219E-04   7.795251289455160E-04
   7.893303480046637E-04   7.992589015365926E-04   8.093123408979911E-04
   8.194922369592141E-04   8.298001803497317E-04   8.402377817066703E-04
   8.508066719264780E-04   8.615085024197533E-04   8.723449453692847E-04
   8.833176939913298E-04   8.944284628001844E-04   9.056789878760808E-04
   9.170710271364506E-04   9.286063606106065E-04   9.402867907178721E-04
   9.521141425492152E-04   9.640902641524233E-04   9.762170268208616E-04
   9.884963253858701E-04   1.000930078512832E-03   1.013520229000969E-03
   1.026268744086910E-03   1.039177615752075E-03   1.052248861033924E-03
   1.065484522341127E-03   1.078886667772691E-03   1.092457391441106E-03
   1.106198813799556E-03   1.120113081973241E-03   1.134202370094872E-03
   1.148468879644383E-03   1.162914839792917E-03   1.177542507751137E-03
   1.192354169121921E-03   1.207352138257495E-03   1.222538758621048E-03
   1.237916403152910E-03   1.253487474641326E-03   1.269254406097893E-03
   1.285219661137733E-03   1.301385734364424E-03   1.317755151759800E-03
   1.334330471078632E-03   1.351114282248286E-03   1.368109207773405E-03
   1.385317903145678E-03   1.402743057258770E-03   1.420387392828461E-03
   1.438253666818081E-03   1.456344670869292E-03   1.474663231738282E-03
   1.493212211737458E-03   1.511994509182681E-03   1.531013058846141E-03
   1.550270832414916E-03   1.569770838955305E-03   1.589516125383005E-03
   1.609509776939193E-03   1.629754917672599E-03   1.650254710927655E-03
   1.671012359838762E-03   1.692031107830795E-03   1.713314239125891E-03
   1.734865079256614E-03   1.756686995585583E-03   1.778783397831618E-03
   1.801157738602528E-03   1.823813513934579E-03   1.846754263838758E-03
   1.869983572853915E-03   1.893505070606840E-03   1.917322432379413E-03
   1.941439379682869E-03   1.965859680839289E-03   1.990587151570414E-03
   2.015625655593851E-03   2.040979105226798E-03   2.066651461997341E-03
   2.092646737263455E-03   2.118968992839791E-03   2.145622341632332E-03
   2.172610948281057E-03   2.199939029810662E-03   2.227610856289486E-03
   2.255630751496714E-03   2.284003093597980E-03   2.312732315829461E-03
   2.341822907190582E-03   2.371279413145425E-03   2.401106436332979E-03
   2.431308637286298E-03   2.461890735160730E-03   2.492857508471287E-03
   2.524213795839299E-03   2.555964496748465E-03   2.588114572310396E-03
   2.620669046039813E-03   2.653633004639465E-03   2.687011598794951E-03
   2.720810043979515E-03   2.755033621268983E-03   2.789687678166934E-03
   2.824777629440261E-03   2.860308957965243E-03   2.896287215584252E-03
   2.932718023973237E-03   2.969607075520129E-03   3.006960134214284E-03
   3.044783036547118E-03   3.083081692424072E-03   3.121862086088045E-03
   3.161130277054447E-03   3.200892401058009E-03   3.241154671011501E-03
   3.281923377976521E-03   3.323204892146473E-03   3.365005663841937E-03
   3.407332224518533E-03   3.450191187787482E-03   3.493589250448990E-03
   3.537533193538644E-03   3.582029883386955E-03   3.627086272692242E-03
   3.672709401607002E-03   3.718906398837948E-03   3.765684482759885E-03
   3.813050962543600E-03   3.861013239297923E-03   3.909578807226181E-03
   3.958755254797166E-03   4.008550265930864E-03   4.058971621199072E-03
   4.110027199041135E-03   4.161724976994964E-03   4.214073032943542E-03
   4.267079546377116E-03   4.320752799671253E-03   4.375101179380978E-03
   4.430133177551195E-03   4.485857393043579E-03   4.542282532880174E-03
   4.599417413603877E-03   4.657270962656043E-03   4.715852219771417E-03
   4.775170338390604E-03   4.835234587090324E-03   4.896054351031639E-03
   4.957639133426403E-03   5.019998557022160E-03   5.083142365605718E-03
   5.147080425525634E-03   5.211822727233856E-03   5.277379386846743E-03
   5.343760647725740E-03   5.410976882077906E-03   5.479038592576616E-03
   5.547956414002606E-03   5.617741114905689E-03   5.688403599287362E-03
   5.759954908304567E-03   5.832406221994915E-03   5.905768861023572E-03
   5.980054288452144E-03   6.055274111529803E-03   6.131440083506938E-03
   6.208564105471634E-03   6.286658228209230E-03   6.365734654085290E-03
   6.445805738952239E-03   6.526883994079993E-03   6.608982088110871E-03
   6.692112849039093E-03   6.776289266215187E-03   6.861524492375598E-03
   6.947831845697821E-03   7.035224811881406E-03   7.123717046255125E-03
   7.213322375910636E-03   7.304054801863002E-03   7.395928501238373E-03
   7.488957829489197E-03   7.583157322637282E-03   7.678541699545080E-03
   7.775125864215549E-03   7.872924908120917E-03   7.971954112560770E-03
   8.072228951049776E-03   8.173765091735462E-03   8.276578399846385E-03
   8.380684940171114E-03   8.486100979568381E-03   8.592842989508812E-03
   8.700927648648629E-03   8.810371845435721E-03   8.921192680748504E-03
   9.033407470567960E-03   9.147033748683303E-03   9.262089269431664E-03
   9.378592010472239E-03   9.496560175595345E-03   9.616012197566789E-03
   9.736966741008032E-03   9.859442705312572E-03   9.983459227599007E-03
   1.010903568570126E-02   1.023619170119639E-02   1.036494714247054E-02
   1.049532212782334E-02   1.062733702861152E-02   1.076101247243189E-02
   1.089636934634454E-02   1.103342880013639E-02   1.117221224962595E-02
   1.131274138000955E-02   1.145503814924973E-02   1.159912479150618E-02
   1.174502382060992E-02   1.189275803358105E-02   1.204235051419094E-02
   1.219382463656903E-02   1.234720406885510E-02   1.250251277689752E-02
   1.265977502799789E-02   1.281901539470289E-02   1.298025875864381E-02
   1.314353031442430E-02   1.330885557355715E-02   1.347626036845044E-02
   1.364577085644397E-02   1.381741352389635E-02   1.399121519032358E-02
   1.416720301258965E-02   1.434540448914984E-02   1.452584746434742E-02
   1.470856013276435E-02   1.489357104362684E-02   1.508090910526609E-02
   1.527060358963540E-02   1.546268413688386E-02   1.565718075998779E-02
   1.585412384944025E-02   1.605354417799965E-02   1.625547290549805E-02
   1.645994158370995E-02   1.666698216128232E-02   1.687662698872663E-02
   1.708890882347369E-02   1.730386083499207E-02   1.752151660997090E-02
   1.774191015756784E-02   1.796507591472310E-02   1.819104875154026E-02
   1.841986397673483E-02   1.865155734315126E-02   1.888616505334945E-02
   1.912372376526143E-02   1.936427059791925E-02   1.960784313725491E-02
   1.985447944197323E-02   2.010421804949861E-02   2.035709798199658E-02
   2.061315875247107E-02   2.087244037093843E-02   2.113498335067906E-02
   2.140082871456769E-02   2.167001800148330E-02   2.194259327279963E-02
   2.221859711895739E-02   2.249807266611907E-02   2.278106358290752E-02
   2.306761408722923E-02   2.335776895318350E-02   2.365157351805845E-02
   2.394907368941510E-02   2.425031595226049E-02   2.455534737631107E-02
   2.486421562334745E-02   2.517696895466161E-02   2.549365623859787E-02
   2.581432695818867E-02   2.613903121888634E-02   2.646781975639223E-02
   2.680074394458425E-02   2.713785580354415E-02   2.747920800768576E-02
   2.782485389398545E-02   2.817484747031617E-02   2.852924342388631E-02
   2.888809712978463E-02   2.925146465963277E-02   2.961940279034653E-02
   2.999196901300744E-02   3.036922154184576E-02   3.075121932333666E-02
   3.113802204541067E-02   3.152969014678007E-02   3.192628482638256E-02
   3.232786805294370E-02   3.273450257465968E-02   3.314625192900181E-02
   3.356318045264441E-02   3.398535329151757E-02   3.441283641098626E-02
   3.484569660615763E-02   3.528400151231783E-02   3.572781961550019E-02
   3.617722026318629E-02   3.663227367514163E-02   3.709305095438765E-02
   3.755962409831171E-02   3.803206600991677E-02   3.851045050921270E-02
   3.899485234475084E-02   3.948534720530348E-02   3.998201173169051E-02
   4.048492352875465E-02   4.099416117748739E-02   4.150980424730737E-02
   4.203193330849334E-02   4.256062994477340E-02   4.309597676607260E-02
   4.363805742142095E-02   4.418695661202372E-02   4.474276010449617E-02
   4.530555474426481E-02   4.587542846913710E-02   4.645247032304198E-02
   4.703677046994312E-02   4.762842020792724E-02   4.822751198346962E-02
   4.883413940587905E-02   4.944839726192449E-02   5.007038153064565E-02
   5.070018939834995E-02   5.133791927379808E-02   5.198367080358055E-02
   5.263754488768767E-02   5.329964369527542E-02   5.397007068062952E-02
   5.464893059933042E-02   5.533632952462160E-02   5.603237486398363E-02
   5.673717537591690E-02   5.745084118693534E-02   5.817348380877389E-02
   5.890521615581244E-02   5.964615256271893E-02   6.039640880231437E-02
   6.115610210366262E-02   6.192535117038762E-02   6.270427619922112E-02
   6.349299889878357E-02   6.429164250860148E-02   6.510033181836371E-02
   6.591919318742021E-02   6.674835456452589E-02   6.758794550783287E-02
   6.843809720513418E-02   6.929894249436218E-02   7.017061588434471E-02
   7.105325357582243E-02   7.194699348273031E-02   7.285197525374718E-02
   7.376834029411591E-02   7.469623178773847E-02   7.563579471954855E-02
   7.658717589816576E-02   7.755052397883488E-02   7.852598948665346E-02
   7.951372484009170E-02   8.051388437480814E-02   8.152662436776489E-02
   8.255210306164633E-02   8.359048068958469E-02   8.464191950019699E-02
   8.570658378293647E-02   8.678463989376345E-02   8.787625628113857E-02
   8.898160351234323E-02   9.010085430013119E-02   9.123418352971516E-02
   9.238176828609301E-02   9.354378788171776E-02   9.472042388451531E-02
   9.591186014625504E-02   9.711828283127681E-02   9.833988044557965E-02
   9.957684386627615E-02   1.008293663714174E-01   1.020976436701932E-01
   1.033818739335117E-01   1.046822578249643E-01   1.059989985321798E-01
   1.073323017985726E-01   1.086823759554907E-01   1.100494319547678E-01
   1.114336834016852E-01   1.128353465883477E-01   1.142546405274799E-01
   1.156917869866474E-01   1.171470105229084E-01   1.186205385179010E-01
   1.201126012133723E-01   1.216234317471543E-01   1.231532661895915E-01
   1.247023435804281E-01   1.262709059661581E-01   1.278591984378454E-01
   1.294674691694202E-01   1.310959694564563E-01   1.327449537554369E-01
   1.344146797235134E-01   1.361054082587655E-01   1.378174035409666E-01
   1.395509330728627E-01   1.413062677219700E-01   1.430836817628987E-01
   1.448834529202089E-01   1.467058624118056E-01   1.485511949928794E-01
   1.504197390004006E-01   1.523117863981721E-01   1.542276328224489E-01
   1.561675776281329E-01   1.581319239355466E-01   1.601209786777971E-01
   1.621350526487348E-01   1.641744605515151E-01   1.662395210477721E-01
   1.683305568074097E-01   1.704478945590198E-01   1.725918651409336E-01
   1.747628035529165E-01   1.769610490085123E-01   1.791869449880456E-01
   1.814408392922921E-01   1.837230840968223E-01   1.860340360070300E-01
   1.883740561138531E-01   1.907435100501939E-01   1.931427680480508E-01
   1.955722049963672E-01   1.980322004996090E-01   2.005231389370785E-01
   2.030454095229744E-01   2.055994063672074E-01   2.081855285369806E-01
   2.108041801191443E-01   2.134557702833362E-01   2.161407133459138E-01
   2.188594288346936E-01   2.216123415545017E-01   2.243998816535515E-01
   2.272224846906548E-01   2.300805917032787E-01   2.329746492764589E-01
   2.359051096125792E-01   2.388724306020290E-01   2.418770758947502E-01
   2.449195149726826E-01   2.480002232231222E-01   2.511196820130008E-01
   2.542783787641008E-01   2.574768070292162E-01   2.607154665692704E-01
   2.639948634314058E-01   2.673155100280542E-01   2.706779252170020E-01
   2.740826343824636E-01   2.775301695171727E-01   2.810210693055086E-01
   2.845558792076652E-01   2.881351515448813E-01   2.917594455857420E-01
   2.954293276335646E-01   2.991453711148856E-01   3.029081566690593E-01
   3.067182722389839E-01   3.105763131629691E-01   3.144828822677583E-01
   3.184385899627225E-01   3.224440543352365E-01   3.264999012472579E-01
   3.306067644331185E-01   3.347652855985463E-01   3.389761145209343E-01
   3.432399091508684E-01   3.475573357149343E-01   3.519290688198167E-01
   3.563557915577072E-01   3.608381956130403E-01   3.653769813705690E-01
   3.699728580248018E-01   3.746265436908168E-01   3.793387655164670E-01
   3.841102597960001E-01   3.889417720851046E-01   3.938340573174054E-01
   3.987878799224239E-01   4.038040139450203E-01   4.088832431663415E-01
   4.140263612262868E-01   4.192341717475168E-01   4.245074884610209E-01
   4.298471353332641E-01   4.352539466949342E-01   4.407287673713064E-01
   4.462724528142498E-01   4.518858692358939E-01   4.575698937439749E-01
   4.633254144788868E-01   4.691533307524540E-01   4.750545531884508E-01
   4.810300038648895E-01   4.870806164580951E-01   4.932073363885956E-01
   4.994111209688450E-01   5.056929395528054E-01   5.120537736874113E-01
   5.184946172659373E-01   5.250164766832968E-01   5.316203709932923E-01
   5.383073320678453E-01   5.450784047582290E-01   5.519346470583265E-01
   5.588771302699469E-01   5.659069391702164E-01   5.730251721810775E-01
   5.802329415409210E-01   5.875313734783730E-01   5.949216083882732E-01
   6.024048010098615E-01   6.099821206072094E-01   6.176547511519206E-01
   6.254238915081277E-01   6.332907556198175E-01   6.412565727005132E-01
   6.493225874253398E-01   6.574900601255088E-01   6.657602669852464E-01
   6.741345002412000E-01   6.826140683843539E-01   6.912002963644815E-01
   6.998945257971744E-01   7.086981151734696E-01   7.176124400721179E-01
   7.266388933745215E-01   7.357788854823729E-01   7.450338445380349E-01
   7.544052166476892E-01   7.638944661072938E-01   7.735030756313834E-01
   7.832325465847442E-01   7.930843992170081E-01   8.030601729001926E-01
   8.131614263692308E-01   8.233897379655296E-01   8.337467058835845E-01
   8.442339484207048E-01   8.548531042298732E-01   8.656058325757893E-01
   8.764938135941345E-01   8.875187485540939E-01   8.986823601241861E-01
   9.099863926414313E-01   9.214326123839079E-01   9.330228078467393E-01
   9.447587900215458E-01   9.566423926794204E-01   9.686754726574552E-01
   9.808599101488779E-01   9.931976089968366E-01   1.005690496991877E+00
   1.018340526173166E+00   1.031149673133499E+00   1.044119939328150E+00
   1.057253351387599E+00   1.070551961434202E+00   1.084017847402832E+00
   1.097653113365572E+00   1.111459889860467E+00   1.125440334224436E+00
   1.139596630930354E+00   1.153930991928381E+00   1.168445656991588E+00
   1.183142894065922E+00   1.198024999624576E+00   1.213094299026822E+00
   1.228353146881350E+00   1.243803927414183E+00   1.259449054841214E+00
   1.275290973745432E+00   1.291332159458897E+00   1.307575118449514E+00
   1.324022388712670E+00   1.340676540167807E+00   1.357540175059973E+00
   1.374615928366430E+00   1.391906468208371E+00   1.409414496267825E+00
   1.427142748209798E+00   1.445093994109723E+00   1.463271038886294E+00
   1.481676722739739E+00   1.500313921595606E+00   1.519185547554135E+00
   1.538294549345278E+00   1.557643912789439E+00   1.577236661264026E+00
   1.597075856175846E+00   1.617164597439471E+00   1.637506023961594E+00
   1.658103314131492E+00   1.678959686317660E+00   1.700078399370684E+00
   1.721462753132448E+00   1.743116088951732E+00   1.765041790206312E+00
   1.787243282831616E+00   1.809724035856037E+00   1.832487561942974E+00
   1.855537417939689E+00   1.878877205433078E+00   1.902510571312420E+00
   1.926441208339217E+00   1.950672855724193E+00   1.975209299711551E+00
   2.000054374170584E+00   2.025211961194723E+00   2.050685991708122E+00
   2.076480446079881E+00   2.102599354745972E+00   2.129046798839014E+00
   2.155826910825953E+00   2.182943875153772E+00   2.210401928903318E+00
   2.238205362451354E+00   2.266358520140936E+00   2.294865800960233E+00
   2.323731659229869E+00   2.352960605298930E+00   2.382557206249705E+00
   2.412526086611307E+00   2.442871929082264E+00   2.473599475262199E+00
   2.504713526392724E+00   2.536218944107627E+00   2.568120651192524E+00
   2.600423632354052E+00   2.633132934998736E+00   2.666253670021666E+00
   2.699791012605073E+00   2.733750203026967E+00   2.768136547479941E+00
   2.802955418900275E+00   2.838212257807470E+00   2.873912573154337E+00
   2.910061943187779E+00   2.946666016320412E+00   2.983730512013130E+00
   3.021261221668799E+00   3.059264009537159E+00   3.097744813631130E+00
   3.136709646654641E+00   3.176164596942125E+00   3.216115829409840E+00
   3.256569586519139E+00   3.297532189251874E+00   3.339010038098062E+00
   3.381009614055968E+00   3.423537479644790E+00   3.466600279930048E+00
   3.510204743561899E+00   3.554357683826497E+00   3.599065999710588E+00
   3.644336676979493E+00   3.690176789268637E+00   3.736593499188827E+00
   3.783594059445424E+00   3.831185813971587E+00   3.879376199075796E+00
   3.928172744603761E+00   3.977583075115001E+00   4.027614911074184E+00
   4.078276070057464E+00   4.129574467974011E+00   4.181518120302864E+00
   4.234115143345378E+00   4.287373755493415E+00   4.341302278513474E+00
   4.395909138847002E+00   4.451202868927021E+00   4.507192108511354E+00
   4.563885606032594E+00   4.621292219965071E+00   4.679420920209013E+00
   4.738280789492094E+00   4.797881024788640E+00   4.858230938756673E+00
   4.919339961193031E+00   4.981217640506805E+00   5.043873645211274E+00
   5.107317765434647E+00   5.171559914449789E+00   5.236610130223180E+00
   5.302478576983387E+00   5.369175546809227E+00   5.436711461237926E+00
   5.505096872893520E+00   5.574342467135705E+00   5.644459063729472E+00
   5.715457618535690E+00   5.787349225222990E+00   5.860145117001188E+00
   5.933856668376468E+00   6.008495396928712E+00   6.084072965111107E+00
   6.160601182072441E+00   6.238092005502315E+00   6.316557543499540E+00
   6.396010056464079E+00   6.476461959012724E+00   6.557925821918928E+00
   6.640414374077011E+00   6.723940504491067E+00   6.808517264288916E+00
   6.894157868761349E+00   6.980875699427048E+00   7.068684306123484E+00
   7.157597409124096E+00   7.247628901282135E+00   7.338792850201415E+00
   7.431103500434429E+00   7.524575275708083E+00   7.619222781177427E+00
   7.715060805707767E+00   7.812104324185411E+00   7.910368499857559E+00
   8.009868686701580E+00   8.110620431824094E+00   8.212639477890274E+00
   8.315941765583618E+00   8.420543436096752E+00   8.526460833653502E+00
   8.633710508062723E+00   8.742309217304259E+00   8.852273930147364E+00
   8.963621828802145E+00   9.076370311604306E+00   9.190536995733666E+00
   9.306139719966911E+00   9.423196547464890E+00   9.541725768595052E+00
   9.661745903789349E+00   9.783275706438079E+00   9.906334165820176E+00
   1.003094051007028E+01   1.015711420918318E+01   1.028487497805609E+01
   1.041424277956904E+01   1.054523782770425E+01   1.067788059070450E+01
   1.081219179427136E+01   1.094819242480365E+01   1.108590373267657E+01
   1.122534723556218E+01   1.136654472179150E+01   1.150951825375901E+01
   1.165429017136996E+01   1.180088309553102E+01   1.194931993168486E+01
   1.209962387338909E+01   1.225181840594042E+01   1.240592731004420E+01
   1.256197466553021E+01   1.271998485511526E+01   1.287998256821294E+01
   1.304199280479142E+01   1.320604087927979E+01   1.337215242452344E+01
   1.354035339578929E+01   1.371067007482129E+01   1.388312907394706E+01
   1.405775734023608E+01   1.423458215971022E+01   1.441363116160732E+01
   1.459493232269818E+01   1.477851397165808E+01   1.496440479349317E+01
   1.515263383402255E+01   1.534323050441678E+01   1.553622458579337E+01
   1.573164623387019E+01   1.592952598367733E+01   1.612989475432828E+01
   1.633278385385114E+01   1.653822498408046E+01   1.674625024561083E+01
   1.695689214281258E+01   1.717018358891070E+01   1.738615791112761E+01
   1.760484885589056E+01   1.782629059410457E+01   1.805051772649178E+01
   1.827756528899781E+01   1.850746875826625E+01   1.874026405718191E+01
   1.897598756048387E+01   1.921467610044910E+01   1.945636697264757E+01
   1.970109794176982E+01   1.994890724752767E+01   2.019983361062931E+01
   2.045391623882949E+01   2.071119483305579E+01   2.097170959361202E+01
   2.123550122645953E+01   2.150261094957764E+01   2.177308049940402E+01
   2.204695213735609E+01   2.232426865643451E+01   2.260507338790958E+01
   2.288941020809188E+01   2.317732354518808E+01   2.346885838624281E+01
   2.376406028416818E+01   2.406297536486131E+01   2.436565033441170E+01