<UPF version="2.0.1">
  <PP_INFO>
    Generated using "atomic" code by A. Dal Corso  v.7.2
    Author: ADC
    Generation date: 31May2024
    Pseudopotential type: PAW
    Element: Sm
    Functional:  SLA  PW   BEEX BEEC
    Suggested minimum cutoff for wavefunctions: 119. Ry
    Suggested minimum cutoff for charge density: 482. Ry
    The Pseudo was generated with a Scalar-Relativistic Calculation
    Local Potential by smoothing AE potential with Bessel fncs, cutoff radius:   1.7000
    Valence configuration: 
    nl pn  l   occ       Rcut    Rcut US       E pseu
    5S  1  0  2.00      1.300      1.600    -3.330043
    6S  2  0  2.00      1.300      1.600    -0.293311
    5P  2  1  6.00      1.400      1.900    -1.832403
    4D  3  2 10.00      1.050      1.300    -9.766892
    5D  4  2  0.50      1.050      1.300    -0.179930
    4F  4  3  5.50      1.100      1.300    -0.410864
    Generation configuration:
    5S  1  0  2.00      1.300      1.600    -3.330061
    6S  2  0  2.00      1.300      1.600    -0.293317
    5P  2  1  6.00      1.400      1.900    -1.832418
    6P  3  1  0.00      1.400      1.900     0.300000
    4D  3  2 10.00      1.050      1.300    -9.766979
    5D  4  2  0.50      1.050      1.300    -0.179950
    4F  4  3  5.50      1.100      1.300    -0.410921
    4F  4  3  0.00      1.100      1.300     1.000000
    Pseudization used: troullier-martins
    <PP_INPUTFILE>
@input
title='Sm',
zed=62.0,
rel=1,
config='[Xe] 4f5.5 5d0.5 6s2. 6p0.',
iswitch=3,
dft='SLA-PW-BEEX-BEEC'
/
@inputp
lpaw=.true.,
pseudotype=3,
file_pseudopw='Sm.beef-spdfn-kjpaw_psl.1.0.0.UPF',
author='ADC',
lloc=-1,
rcloc=1.7,
which_augfun='PSQ',
rmatch_augfun_nc=.true.,
nlcc=.true.,
new_core_ps=.true.,
rcore=1.2,
tm=.true.
/
8
5S  1  0  2.00  0.00  1.30  1.60  0.0
6S  2  0  2.00  0.00  1.30  1.60  0.0
5P  2  1  6.00  0.00  1.40  1.90  0.0
6P  3  1  0.00  0.30  1.40  1.90  0.0
4D  3  2 10.00  0.00  1.05  1.30  0.0
5D  4  2  0.50  0.00  1.05  1.30  0.0
4F  4  3  5.50  0.00  1.10  1.30  0.0
4F  4  3  0.00  1.00  1.10  1.30  0.0
    </PP_INPUTFILE>
  </PP_INFO>
    <!-- END OF HUMAN READABLE SECTION -->
  <PP_HEADER generated="Generated using 'atomic' code by A. Dal Corso  v.7.2" author="ADC" date="31May2024" comment="" element="Sm" pseudo_type="PAW" relativistic="scalar" is_ultrasoft="true" is_paw="true" is_coulomb="false" has_so="false" has_wfc="true" has_gipaw="false" paw_as_gipaw="false" core_correction="true" functional=" SLA  PW   BEEX BEEC" z_valence="26.0000000000000" total_psenergy="-1059.84592494319" wfc_cutoff="118.634389997992" rho_cutoff="482.366609549973" l_max="3" l_max_rho="6" l_local="-1" mesh_size="1259" number_of_wfc="6" number_of_proj="8"/>
  <PP_MESH mesh="1259" dx="1.250000000000000E-002" xmin="-7.00000000000000" rmax="100.000000000000" zmesh="62.0000000000000">
    <PP_R>
   1.470777363797607E-05   1.489277465595197E-05   1.508010270026745E-05
   1.526978704131055E-05   1.546185731764548E-05   1.565634354064369E-05
   1.585327609917320E-05   1.605268576434695E-05   1.625460369433081E-05
   1.645906143921217E-05   1.666609094592963E-05   1.687572456326482E-05
   1.708799504689694E-05   1.730293556452092E-05   1.752057970102997E-05
   1.774096146376320E-05   1.796411528781941E-05   1.819007604143762E-05
   1.841887903144528E-05   1.865056000877512E-05   1.888515517405120E-05
   1.912270118324537E-05   1.936323515340485E-05   1.960679466845185E-05
   1.985341778505614E-05   2.010314303858144E-05   2.035600944910668E-05
   2.061205652752297E-05   2.087132428170723E-05   2.113385322277355E-05
   2.139968437140309E-05   2.166885926425366E-05   2.194141996044990E-05
   2.221740904815511E-05   2.249686965122579E-05   2.277984543594970E-05
   2.306638061786894E-05   2.335651996868864E-05   2.365030882327263E-05
   2.394779308672721E-05   2.424901924157375E-05   2.455403435501180E-05
   2.486288608627339E-05   2.517562269406988E-05   2.549229304413253E-05
   2.581294661684781E-05   2.613763351498882E-05   2.646640447154397E-05
   2.679931085764409E-05   2.713640469058937E-05   2.747773864197700E-05
   2.782336604593133E-05   2.817334090743741E-05   2.852771791077937E-05
   2.888655242808500E-05   2.924990052797766E-05   2.961781898433721E-05
   2.999036528517098E-05   3.036759764159641E-05   3.074957499693671E-05
   3.113635703593080E-05   3.152800419405915E-05   3.192457766698704E-05
   3.232613942012644E-05   3.273275219831829E-05   3.314447953563643E-05
   3.356138576531499E-05   3.398353602980055E-05   3.441099629093077E-05
   3.484383334024120E-05   3.528211480940137E-05   3.572590918078253E-05
   3.617528579815812E-05   3.663031487753882E-05   3.709106751814413E-05
   3.755761571351151E-05   3.803003236274569E-05   3.850839128190925E-05
   3.899276721555651E-05   3.948323584841263E-05   3.997987381719933E-05
   4.048275872260965E-05   4.099196914143320E-05   4.150758463883387E-05
   4.202968578078223E-05   4.255835414664390E-05   4.309367234192662E-05
   4.363572401118753E-05   4.418459385110271E-05   4.474036762370143E-05
   4.530313216976633E-05   4.587297542240270E-05   4.644998642077811E-05
   4.703425532403496E-05   4.762587342537817E-05   4.822493316633968E-05
   4.883152815122283E-05   4.944575316172811E-05   5.006770417176304E-05
   5.069747836243839E-05   5.133517413725269E-05   5.198089113746817E-05
   5.263473025767981E-05   5.329679366158036E-05   5.396718479792374E-05
   5.464600841668890E-05   5.533337058544733E-05   5.602937870593635E-05
   5.673414153084078E-05   5.744776918078596E-05   5.817037316154404E-05
   5.890206638145715E-05   5.964296316907955E-05   6.039317929104162E-05
   6.115283197013883E-05   6.192203990364780E-05   6.270092328187307E-05
   6.348960380692715E-05   6.428820471174662E-05   6.509685077934772E-05
   6.591566836232365E-05   6.674478540258769E-05   6.758433145136418E-05
   6.843443768943129E-05   6.929523694761838E-05   7.016686372756079E-05
   7.104945422271623E-05   7.194314633964519E-05   7.284807971955914E-05
   7.376439576013989E-05   7.469223763763300E-05   7.563175032921953E-05
   7.658308063566899E-05   7.754637720427726E-05   7.852179055209295E-05
   7.950947308943632E-05   8.050957914371318E-05   8.152226498352926E-05
   8.254768884310735E-05   8.358601094701168E-05   8.463739353518362E-05
   8.570200088829154E-05   8.677999935340033E-05   8.787155736996337E-05
   8.897684549614148E-05   9.009603643545322E-05   9.122930506375981E-05
   9.237682845659008E-05   9.353878591680882E-05   9.471535900263310E-05
   9.590673155600151E-05   9.711308973129934E-05   9.833462202444577E-05
   9.957151930234689E-05   1.008239748327187E-04   1.020921843142862E-04
   1.033763459073610E-04   1.046766602648046E-04   1.059933305633809E-04
   1.073265625355028E-04   1.086765645013785E-04   1.100435474015617E-04
   1.114277248299118E-04   1.128293130669680E-04   1.142485311137438E-04
   1.156856007259468E-04   1.171407464486273E-04   1.186141956512651E-04
   1.201061785632959E-04   1.216169283100850E-04   1.231466809493542E-04
   1.246956755080657E-04   1.262641540197706E-04   1.278523615624275E-04
   1.294605462966960E-04   1.310889595047131E-04   1.327378556293553E-04
   1.344074923139969E-04   1.360981304427667E-04   1.378100341813119E-04
   1.395434710180748E-04   1.412987118060876E-04   1.430760308052945E-04
   1.448757057254052E-04   1.466980177692874E-04   1.485432516769055E-04
   1.504116957698117E-04   1.523036419961970E-04   1.542193859765083E-04
   1.561592270496401E-04   1.581234683197069E-04   1.601124167034034E-04
   1.621263829779611E-04   1.641656818297077E-04   1.662306319032378E-04
   1.683215558512017E-04   1.704387803847202E-04   1.725826363244343E-04
   1.747534586521962E-04   1.769515865634109E-04   1.791773635200372E-04
   1.814311373042526E-04   1.837132600727964E-04   1.860240884119941E-04
   1.883639833934749E-04   1.907333106305906E-04   1.931324403355423E-04
   1.955617473772274E-04   1.980216113398137E-04   2.005124165820497E-04
   2.030345522973226E-04   2.055884125744688E-04   2.081743964593528E-04
   2.107929080172176E-04   2.134443563958214E-04   2.161291558893682E-04
   2.188477260032409E-04   2.216004915195507E-04   2.243878825635102E-04
   2.272103346706407E-04   2.300682888548267E-04   2.329621916772239E-04
   2.358924953160359E-04   2.388596576371680E-04   2.418641422657694E-04
   2.449064186586765E-04   2.479869621777650E-04   2.511062541642273E-04
   2.542647820137823E-04   2.574630392528324E-04   2.607015256155786E-04
   2.639807471221037E-04   2.673012161574396E-04   2.706634515516286E-04
   2.740679786607914E-04   2.775153294492158E-04   2.810060425724760E-04
   2.845406634615994E-04   2.881197444082912E-04   2.917438446512306E-04
   2.954135304634545E-04   2.991293752408369E-04   3.028919595916840E-04
   3.067018714274557E-04   3.105597060546279E-04   3.144660662677096E-04
   3.184215624434319E-04   3.224268126361199E-04   3.264824426742644E-04
   3.305890862583106E-04   3.347473850596733E-04   3.389579888210005E-04
   3.432215554576964E-04   3.475387511607221E-04   3.519102505006899E-04
   3.563367365332652E-04   3.608189009058968E-04   3.653574439658866E-04
   3.699530748698215E-04   3.746065116943803E-04   3.793184815485340E-04
   3.840897206871594E-04   3.889209746260786E-04   3.938129982585490E-04
   3.987665559732161E-04   4.037824217735508E-04   4.088613793987895E-04
   4.140042224463941E-04   4.192117544960540E-04   4.244847892352470E-04
   4.298241505863788E-04   4.352306728355239E-04   4.407052007627834E-04
   4.462485897742835E-04   4.518617060358358E-04   4.575454266082758E-04
   4.633006395845070E-04   4.691282442282657E-04   4.750291511146337E-04
   4.810042822723179E-04   4.870545713277178E-04   4.931809636508080E-04
   4.993844165028531E-04   5.056658991859821E-04   5.120263931946444E-04
   5.184668923689688E-04   5.249884030500553E-04   5.315919442372155E-04
   5.382785477471948E-04   5.450492583753961E-04   5.519051340591296E-04
   5.588472460429198E-04   5.658766790458878E-04   5.729945314312414E-04
   5.802019153778979E-04   5.874999570542618E-04   5.948897967941938E-04
   6.023725892751875E-04   6.099495036987917E-04   6.176217239733010E-04
   6.253904488987420E-04   6.332568923541906E-04   6.412222834874407E-04
   6.492878669070621E-04   6.574549028768746E-04   6.657246675128637E-04
   6.740984529825793E-04   6.825775677070374E-04   6.911633365651643E-04
   6.998571011008125E-04   7.086602197323778E-04   7.175740679650568E-04
   7.266000386057713E-04   7.357395419807968E-04   7.449940061561310E-04
   7.543648771606287E-04   7.638536192119505E-04   7.734617149453463E-04
   7.831906656453222E-04   7.930419914802191E-04   8.030172317397411E-04
   8.131179450754739E-04   8.233457097444261E-04   8.337021238556354E-04
   8.441888056198776E-04   8.548073936025134E-04   8.655595469795183E-04
   8.764469457967337E-04   8.874712912323747E-04   8.986343058628455E-04
   9.099377339318931E-04   9.213833416231499E-04   9.329729173361046E-04
   9.447082719655407E-04   9.565912391844959E-04   9.686236757307738E-04
   9.808074616970640E-04   9.931445008247136E-04   1.005636720801184E-03
   1.018286073561264E-03   1.031094535592058E-03   1.044064108241815E-03
   1.057196818032651E-03   1.070494716977187E-03   1.083959882899190E-03
   1.097594419758229E-03   1.111400457978429E-03   1.125380154781349E-03
   1.139535694523058E-03   1.153869289035440E-03   1.168383177971798E-03
   1.183079629156809E-03   1.197960938940869E-03   1.213029432558910E-03
   1.228287464493715E-03   1.243737418843818E-03   1.259381709696019E-03
   1.275222781502592E-03   1.291263109463235E-03   1.307505199911827E-03
   1.323951590708046E-03   1.340604851633912E-03   1.357467584795329E-03
   1.374542425028659E-03   1.391832040312428E-03   1.409339132184201E-03
   1.427066436162699E-03   1.445016722175237E-03   1.463192794990524E-03
   1.481597494656918E-03   1.500233696946186E-03   1.519104313802850E-03
   1.538212293799188E-03   1.557560622595949E-03   1.577152323408872E-03
   1.596990457481070E-03   1.617078124561351E-03   1.637418463388566E-03
   1.658014652182039E-03   1.678869909138172E-03   1.699987492933297E-03
   1.721370703232842E-03   1.743022881206924E-03   1.764947410052402E-03
   1.787147715521515E-03   1.809627266457158E-03   1.832389575334900E-03
   1.855438198811813E-03   1.878776738282209E-03   1.902408840440363E-03
   1.926338197850317E-03   1.950568549522850E-03   1.975103681499709E-03
   1.999947427445181E-03   2.025103669245117E-03   2.050576337613478E-03
   2.076369412706520E-03   2.102486924744705E-03   2.128932954642423E-03
   2.155711634645652E-03   2.182827148977625E-03   2.210283734492621E-03
   2.238085681337989E-03   2.266237333624486E-03   2.294743090105059E-03
   2.323607404862150E-03   2.352834788003668E-03   2.382429806367691E-03
   2.412397084236050E-03   2.442741304056880E-03   2.473467207176266E-03
   2.504579594579081E-03   2.536083327639156E-03   2.567983328878876E-03
   2.600284582738335E-03   2.632992136354168E-03   2.666111100348170E-03
   2.699646649625848E-03   2.733604024185002E-03   2.767988529934496E-03
   2.802805539523309E-03   2.838060493180025E-03   2.873758899562879E-03
   2.909906336620497E-03   2.946508452463463E-03   2.983570966246844E-03
   3.021099669063824E-03   3.059100424850570E-03   3.097579171302487E-03
   3.136541920801993E-03   3.175994761357969E-03   3.215943857557020E-03
   3.256395451526701E-03   3.297355863910872E-03   3.338831494857301E-03
   3.380828825017708E-03   3.423354416560373E-03   3.466414914195495E-03
   3.510017046213435E-03   3.554167625536031E-03   3.598873550781127E-03
   3.644141807340499E-03   3.689979468471331E-03   3.736393696401433E-03
   3.783391743448350E-03   3.830980953152552E-03   3.879168761424875E-03
   3.927962697708400E-03   3.977370386154944E-03   4.027399546816348E-03
   4.078057996850750E-03   4.129353651744034E-03   4.181294526546639E-03
   4.233888737125925E-03   4.287144501434301E-03   4.341070140793289E-03
   4.395674081193754E-03   4.450964854612471E-03   4.506951100345280E-03
   4.563641566356983E-03   4.621045110648228E-03   4.679170702639603E-03
   4.738027424573112E-03   4.797624472931301E-03   4.857971159874229E-03
   4.919076914694506E-03   4.980951285290644E-03   5.043603939658934E-03
   5.107044667404086E-03   5.171283381268882E-03   5.236330118683062E-03
   5.302195043331681E-03   5.368888446743220E-03   5.436420749897652E-03
   5.504802504854738E-03   5.574044396402816E-03   5.644157243728315E-03
   5.715152002106271E-03   5.787039764612124E-03   5.859831763855022E-03
   5.933539373732943E-03   6.008174111209888E-03   6.083747638115437E-03
   6.160271762966920E-03   6.237758442814538E-03   6.316219785109663E-03
   6.395668049596661E-03   6.476115650228496E-03   6.557575157106439E-03
   6.640059298444171E-03   6.723580962556590E-03   6.808153199873638E-03
   6.893789224979465E-03   6.980502418677216E-03   7.068306330079829E-03
   7.157214678727097E-03   7.247241356729384E-03   7.338400430938285E-03
   7.430706145144612E-03   7.524172922304008E-03   7.618815366790562E-03
   7.714648266678778E-03   7.811686596054236E-03   7.909945517353327E-03
   8.009440383732415E-03   8.110186741466793E-03   8.212200332379830E-03
   8.315497096302650E-03   8.420093173564777E-03   8.526004907516089E-03
   8.633248847080490E-03   8.741841749341731E-03   8.851800582161720E-03
   8.963142526831799E-03   9.075884980757353E-03   9.190045560176181E-03
   9.305642102911078E-03   9.422692671157033E-03   9.541215554303472E-03
   9.661229271792027E-03   9.782752576010221E-03   9.905804455221582E-03
   1.003040413653259E-02   1.015657108889694E-02   1.028432502615764E-02
   1.041368591012730E-02   1.054467395370722E-02   1.067730962404571E-02
   1.081161364573612E-02   1.094760700405507E-02   1.108531094824149E-02
   1.122474699481681E-02   1.136593693094699E-02   1.150890281784682E-02
   1.165366699422698E-02   1.180025207978455E-02   1.194868097873739E-02
   1.209897688340294E-02   1.225116327782208E-02   1.240526394142856E-02
   1.256130295276460E-02   1.271930469324318E-02   1.287929385095770E-02
   1.304129542453956E-02   1.320533472706423E-02   1.337143739000646E-02
   1.353962936724529E-02   1.370993693911933E-02   1.388238671653320E-02
   1.405700564511546E-02   1.423382100942896E-02   1.441286043723413E-02
   1.459415190380581E-02   1.477772373630448E-02   1.496360461820247E-02
   1.515182359376574E-02   1.534241007259217E-02   1.553539383420681E-02
   1.573080503271505E-02   1.592867420151422E-02   1.612903225806452E-02
   1.633191050871992E-02   1.653734065361983E-02   1.674535479164235E-02
   1.695598542541975E-02   1.716926546641709E-02   1.738522824007471E-02
   1.760390749101536E-02   1.782533738831691E-02   1.804955253085130E-02
   1.827658795269075E-02   1.850647912858182E-02   1.873926197948845E-02
   1.897497287820469E-02   1.921364865503804E-02   1.945532660356421E-02
   1.970004448645436E-02   1.994784054137557E-02   2.019875348696556E-02
   2.045282252888258E-02   2.071008736593132E-02   2.097058819626599E-02
   2.123436572367133E-02   2.150146116392263E-02   2.177191625122587E-02
   2.204577324473866E-02   2.232307493517342E-02   2.260386465148345E-02
   2.288818626763319E-02   2.317608420945363E-02   2.346760346158390E-02
   2.376278957450026E-02   2.406168867163340E-02   2.436434745657537E-02
   2.467081322037709E-02   2.498113384893764E-02   2.529535783048660E-02
   2.561353426316039E-02   2.593571286267393E-02   2.626194397008888E-02
   2.659227855967950E-02   2.692676824689747E-02   2.726546529643697E-02
   2.760842263040105E-02   2.795569383657090E-02   2.830733317677902E-02
   2.866339559538773E-02   2.902393672787435E-02   2.938901290952435E-02
   2.975868118423388E-02   3.013299931342295E-02   3.051202578506081E-02
   3.089581982280479E-02   3.128444139525411E-02   3.167795122532013E-02
   3.207641079971440E-02   3.247988237855609E-02   3.288842900510026E-02
   3.330211451558850E-02   3.372100354922349E-02   3.414516155826896E-02
   3.457465481827678E-02   3.500955043844264E-02   3.544991637209198E-02
   3.589582142729789E-02   3.634733527763241E-02   3.680452847305330E-02
   3.726747245092750E-02   3.773623954719342E-02   3.821090300766357E-02
   3.869153699946934E-02   3.917821662264982E-02   3.967101792188630E-02
   4.017001789838438E-02   4.067529452190563E-02   4.118692674295046E-02
   4.170499450509431E-02   4.222957875747907E-02   4.276076146746142E-02
   4.329862563342050E-02   4.384325529772656E-02   4.439473555987267E-02
   4.495315258977180E-02   4.551859364122100E-02   4.609114706553492E-02
   4.667090232535100E-02   4.725795000860811E-02   4.785238184270110E-02
   4.845429070881346E-02   4.906377065643008E-02   4.968091691803279E-02
   5.030582592398054E-02   5.093859531757692E-02   5.157932397032705E-02
   5.222811199738649E-02   5.288506077320444E-02   5.355027294736369E-02
   5.422385246061984E-02   5.490590456114227E-02   5.559653582095930E-02
   5.629585415261037E-02   5.700396882600760E-02   5.772099048550936E-02
   5.844703116720877E-02   5.918220431643945E-02   5.992662480550170E-02
   6.068040895161148E-02   6.144367453507520E-02   6.221654081769316E-02
   6.299912856139442E-02   6.379156004710611E-02   6.459395909386011E-02
   6.540645107813994E-02   6.622916295347120E-02   6.706222327025822E-02
   6.790576219587037E-02   6.875991153498096E-02   6.962480475016204E-02
   7.050057698273807E-02   7.138736507390220E-02   7.228530758609786E-02
   7.319454482466943E-02   7.411521885978534E-02   7.504747354863667E-02
   7.599145455791521E-02   7.694730938657428E-02   7.791518738887550E-02
   7.889523979772592E-02   7.988761974830835E-02   8.089248230200906E-02
   8.190998447064650E-02   8.294028524100465E-02   8.398354559967502E-02
   8.503992855821120E-02   8.610959917859966E-02   8.719272459905111E-02
   8.828947406011615E-02   8.940001893112945E-02   9.052453273698645E-02
   9.166319118525719E-02   9.281617219364086E-02   9.398365591776574E-02
   9.516582477933903E-02   9.636286349465044E-02   9.757495910343467E-02
   9.880230099809660E-02   1.000450809533043E-01   1.013034931559543E-01
   1.025777342355135E-01   1.038680032947429E-01   1.051745019408083E-01
   1.064974343167811E-01   1.078370071335367E-01   1.091934297020529E-01
   1.105669139661158E-01   1.119576745354361E-01   1.133659287191822E-01
   1.147918965599355E-01   1.162358008680721E-01   1.176978672565780E-01
   1.191783241763009E-01   1.206774029516465E-01   1.221953378167234E-01
   1.237323659519425E-01   1.252887275210771E-01   1.268646657087886E-01
   1.284604267586254E-01   1.300762600114980E-01   1.317124179446396E-01
   1.333691562110560E-01   1.350467336794721E-01   1.367454124747803E-01
   1.384654580189983E-01   1.402071390727421E-01   1.419707277772196E-01
   1.437564996967539E-01   1.455647338618408E-01   1.473957128127472E-01
   1.492497226436597E-01   1.511270530473861E-01   1.530279973606214E-01
   1.549528526097824E-01   1.569019195574175E-01   1.588755027492031E-01
   1.608739105615279E-01   1.628974552496783E-01   1.649464529966291E-01
   1.670212239624467E-01   1.691220923343158E-01   1.712493863771937E-01
   1.734034384851026E-01   1.755845852330669E-01   1.777931674297033E-01
   1.800295301704738E-01   1.822940228916063E-01   1.845869994246956E-01
   1.869088180519903E-01   1.892598415623744E-01   1.916404373080549E-01
   1.940509772619603E-01   1.964918380758626E-01   1.989634011392300E-01
   2.014660526388196E-01   2.040001836190199E-01   2.065661900429523E-01
   2.091644728543410E-01   2.117954380401617E-01   2.144594966940772E-01
   2.171570650806725E-01   2.198885647004962E-01   2.226544223559210E-01
   2.254550702178329E-01   2.282909458931582E-01   2.311624924932409E-01
   2.340701587030794E-01   2.370143988514347E-01   2.399956729818201E-01
   2.430144469243837E-01   2.460711923686962E-01   2.491663869374520E-01
   2.523005142610997E-01   2.554740640534101E-01   2.586875321879948E-01
   2.619414207757878E-01   2.652362382435010E-01   2.685724994130669E-01
   2.719507255820813E-01   2.753714446052558E-01   2.788351909768976E-01
   2.823425059144241E-01   2.858939374429298E-01   2.894900404808169E-01
   2.931313769265011E-01   2.968185157462105E-01   3.005520330628874E-01
   3.043325122462079E-01   3.081605440037364E-01   3.120367264732228E-01
   3.159616653160646E-01   3.199359738119408E-01   3.239602729546399E-01
   3.280351915490907E-01   3.321613663096135E-01   3.363394419594100E-01
   3.405700713313004E-01   3.448539154697315E-01   3.491916437340656E-01
   3.535839339031689E-01   3.580314722813169E-01   3.625349538054294E-01
   3.670950821536570E-01   3.717125698553321E-01   3.763881384023020E-01
   3.811225183616649E-01   3.859164494899218E-01   3.907706808485644E-01
   3.956859709211187E-01   4.006630877316588E-01   4.057028089648125E-01
   4.108059220872757E-01   4.159732244708560E-01   4.212055235170642E-01
   4.265036367832710E-01   4.318683921104538E-01   4.373006277525469E-01
   4.428011925074212E-01   4.483709458495110E-01   4.540107580641073E-01
   4.597215103833434E-01   4.655040951238877E-01   4.713594158263702E-01
   4.772883873965640E-01   4.832919362483391E-01   4.893710004484183E-01
   4.955265298629505E-01   5.017594863059303E-01   5.080708436894831E-01
   5.144615881760406E-01   5.209327183324306E-01   5.274852452859060E-01
   5.341201928821343E-01   5.408385978451766E-01   5.476415099394769E-01
   5.545299921338903E-01   5.615051207677750E-01   5.685679857191703E-01
   5.757196905750951E-01   5.829613528039831E-01   5.902941039302905E-01
   5.977190897112999E-01   6.052374703161454E-01   6.128504205070933E-01
   6.205591298230992E-01   6.283648027656772E-01   6.362686589871057E-01
   6.442719334809993E-01   6.523758767752809E-01   6.605817551275778E-01
   6.688908507230770E-01   6.773044618748711E-01   6.858239032268194E-01
   6.944505059589667E-01   7.031856179955408E-01   7.120306042155685E-01
   7.209868466661429E-01   7.300557447783675E-01   7.392387155860241E-01
   7.485371939469838E-01   7.579526327674082E-01   7.674865032287694E-01
   7.771402950177232E-01   7.869155165588780E-01   7.968136952504874E-01
   8.068363777031092E-01   8.169851299812688E-01   8.272615378481568E-01
   8.376672070134108E-01   8.482037633840076E-01   8.588728533183169E-01
   8.696761438833478E-01   8.806153231152304E-01   8.916921002829747E-01
   9.029082061555509E-01   9.142653932723197E-01   9.257654362168748E-01
   9.374101318943232E-01   9.492012998120550E-01   9.611407823640482E-01
   9.732304451187419E-01   9.854721771105382E-01   9.978678911349668E-01
   1.010419524047562E+00   1.023129037066506E+00   1.035998416079063E+00
   1.049029671951887E+00   1.062224840845222E+00   1.075585984531052E+00
   1.089115190715261E+00   1.102814573363841E+00   1.116686273033204E+00
   1.130732457204644E+00   1.144955320623015E+00   1.159357085639662E+00
   1.173940002559672E+00   1.188706349993481E+00   1.203658435212919E+00
   1.218798594511721E+00   1.234129193570579E+00   1.249652627826789E+00
   1.265371322848535E+00   1.281287734713894E+00   1.297404350394602E+00
   1.313723688144647E+00   1.330248297893759E+00   1.346980761645827E+00
   1.363923693882356E+00   1.381079741970978E+00   1.398451586579111E+00
   1.416041942092820E+00   1.433853557040941E+00   1.451889214524547E+00
   1.470151732651814E+00   1.488643964978353E+00   1.507368800953091E+00
   1.526329166369744E+00   1.545528023823983E+00   1.564968373176346E+00
   1.584653252020969E+00   1.604585736160224E+00   1.624768940085308E+00
   1.645206017462900E+00   1.665900161627917E+00   1.686854606082487E+00
   1.708072625001192E+00   1.729557533742654E+00   1.751312689367576E+00
   1.773341491163284E+00   1.795647381174877E+00   1.818233844743052E+00
   1.841104411048694E+00   1.864262653664319E+00   1.887712191112450E+00
   1.911456687431021E+00   1.935499852745894E+00   1.959845443850564E+00
   1.984497264793172E+00   2.009459167470895E+00   2.034735052231809E+00
   2.060328868484337E+00   2.086244615314338E+00   2.112486342109979E+00
   2.139058149194462E+00   2.165964188466702E+00   2.193208664050080E+00
   2.220795832949334E+00   2.248730005715731E+00   2.277015547120597E+00
   2.305656876837323E+00   2.334658470131952E+00   2.364024858562439E+00
   2.393760630686722E+00   2.423870432779693E+00   2.454358969559187E+00
   2.485231004921109E+00   2.516491362683792E+00   2.548144927341736E+00
   2.580196644828817E+00   2.612651523291103E+00   2.645514633869384E+00
   2.678791111491550E+00   2.712486155674929E+00   2.746605031338728E+00
   2.781153069626683E+00   2.816135668740070E+00   2.851558294781169E+00
   2.887426482607368E+00   2.923745836695990E+00   2.960522032020000E+00
   2.997760814934745E+00   3.035468004075814E+00   3.073649491268228E+00
   3.112311242447042E+00   3.151459298589531E+00   3.191099776659122E+00
   3.231238870561159E+00   3.271882852110727E+00   3.313038072012635E+00
   3.354710960853720E+00   3.396908030107654E+00   3.439635873152356E+00
   3.482901166300231E+00   3.526710669841358E+00   3.571071229099793E+00
   3.615989775503179E+00   3.661473327665776E+00   3.707528992485146E+00
   3.754163966252618E+00   3.801385535777720E+00   3.849201079526769E+00
   3.897618068775754E+00   3.946644068777752E+00   3.996286739945005E+00
   4.046553839045880E+00   4.097453220416888E+00   4.148992837189919E+00
   4.201180742534952E+00   4.254025090918375E+00   4.307534139377132E+00
   4.361716248808915E+00   4.416579885278558E+00   4.472133621340874E+00
   4.528386137380154E+00   4.585346222966467E+00   4.643022778229082E+00
   4.701424815247099E+00   4.760561459457621E+00   4.820441951081622E+00
   4.881075646567740E+00   4.942472020054263E+00   5.004640664849458E+00
   5.067591294930557E+00   5.131333746461582E+00   5.195877979330267E+00
   5.261234078704323E+00   5.327412256607240E+00   5.394422853513957E+00
   5.462276339966573E+00   5.530983318210393E+00   5.600554523850560E+00
   5.671000827529497E+00   5.742333236625475E+00   5.814562896972544E+00
   5.887701094602079E+00   5.961759257506272E+00   6.036748957423745E+00
   6.112681911647676E+00   6.189569984856649E+00   6.267425190968529E+00
   6.346259695017680E+00   6.426085815055741E+00   6.506916024076379E+00
   6.588762951964203E+00   6.671639387468207E+00   6.755558280200064E+00
   6.840532742657493E+00   6.926576052273134E+00   7.013701653489171E+00
   7.101923159858047E+00   7.191254356169631E+00   7.281709200605089E+00
   7.373301826917893E+00   7.466046546642251E+00   7.559957851329306E+00
   7.655050414811491E+00   7.751339095495313E+00   7.848838938683026E+00
   7.947565178923496E+00   8.047533242392614E+00   8.148758749303694E+00
   8.251257516348133E+00   8.355045559166813E+00   8.460139094852588E+00
   8.566554544484212E+00   8.674308535692209E+00   8.783417905256927E+00
   8.893899701739342E+00   9.005771188144935E+00   9.119049844621051E+00
   9.233753371188248E+00   9.349899690505911E+00   9.467506950672732E+00
   9.586593528062391E+00   9.707178030194875E+00   9.829279298643995E+00
   9.952916411981349E+00   1.007810868875744E+01   1.020487569052023E+01
   1.033323722487163E+01   1.046321334856255E+01   1.059482437062677E+01
   1.072809085555423E+01   1.086303362650435E+01   1.099967376855960E+01
   1.113803263202022E+01   1.127813183574009E+01   1.141999327050484E+01
   1.156363910245226E+01   1.170909177653583E+01   1.185637402003183E+01
   1.200550884609044E+01   1.215651955733165E+01   1.230942974948632E+01
   1.246426331508306E+01   1.262104444718154E+01   1.277979764315261E+01
   1.294054770850613E+01   1.310331976076684E+01   1.326813923339907E+01
   1.343503187978077E+01   1.360402377722748E+01   1.377514133106697E+01
   1.394841127876519E+01   1.412386069410397E+01   1.430151699141143E+01
   1.448140792984546E+01   1.466356161773118E+01   1.484800651695292E+01
   1.503477144740142E+01   1.522388559147708E+01   1.541537849864964E+01
   1.560928009007544E+01   1.580562066327265E+01   1.600443089685526E+01
   1.620574185532679E+01   1.640958499393405E+01   1.661599216358217E+01