<UPF version="2.0.1">
  <PP_INFO>
    Generated using "atomic" code by A. Dal Corso  v.7.2
    Author: ADC
    Generation date: 31May2024
    Pseudopotential type: PAW
    Element: Sn
    Functional:  SLA  PW   BEEX BEEC
    Suggested minimum cutoff for wavefunctions:  47. Ry
    Suggested minimum cutoff for charge density: 250. Ry
    The Pseudo was generated with a Scalar-Relativistic Calculation
    Local Potential by smoothing AE potential with Bessel fncs, cutoff radius:   1.9000
    Valence configuration: 
    nl pn  l   occ       Rcut    Rcut US       E pseu
    5S  1  0  2.00      1.800      2.000    -0.794008
    5P  2  1  2.00      2.000      2.300    -0.288903
    4D  3  2 10.00      1.300      1.600    -1.947006
    Generation configuration:
    5S  1  0  2.00      1.800      2.000    -0.794005
    5S  1  0  0.00      1.800      2.000     3.000000
    5P  2  1  2.00      2.000      2.300    -0.288903
    5P  2  1  0.00      2.000      2.300     6.000000
    4D  3  2 10.00      1.300      1.600    -1.947002
    4D  3  2  0.00      1.300      1.600     4.500000
    Pseudization used: troullier-martins
    <PP_INPUTFILE>
@input
title='Sn',
zed=50.,
rel=1,
config='[Kr] 5s2 5p2 4d10',
iswitch=3,
dft='SLA-PW-BEEX-BEEC'
/
@inputp
lpaw=.true.,
pseudotype=3,
file_pseudopw='Sn.beef-dn-kjpaw_psl.1.0.0.UPF',
author='ADC',
lloc=-1,
rcloc=1.9,
which_augfun='PSQ',
rmatch_augfun_nc=.true.,
nlcc=.true.,
new_core_ps=.true.,
rcore=1.2,
tm=.true.
/
6
5S  1  0  2.00  0.00  1.80  2.00  0.0
5S  1  0  0.00  3.00  1.80  2.00  0.0
5P  2  1  2.00  0.00  2.00  2.30  0.0
5P  2  1  0.00  6.00  2.00  2.30  0.0
4D  3  2 10.00  0.00  1.30  1.60  0.0
4D  3  2  0.00  4.50  1.30  1.60  0.0
    </PP_INPUTFILE>
  </PP_INFO>
    <!-- END OF HUMAN READABLE SECTION -->
  <PP_HEADER generated="Generated using 'atomic' code by A. Dal Corso  v.7.2" author="ADC" date="31May2024" comment="" element="Sn" pseudo_type="PAW" relativistic="scalar" is_ultrasoft="true" is_paw="true" is_coulomb="false" has_so="false" has_wfc="true" has_gipaw="false" paw_as_gipaw="false" core_correction="true" functional=" SLA  PW   BEEX BEEC" z_valence="14.0000000000000" total_psenergy="-453.715448992335" wfc_cutoff="47.1005189289432" rho_cutoff="249.637825933192" l_max="2" l_max_rho="4" l_local="-1" mesh_size="1243" number_of_wfc="3" number_of_proj="6"/>
  <PP_MESH mesh="1243" dx="1.250000000000000E-002" xmin="-7.00000000000000" rmax="100.000000000000" zmesh="50.0000000000000">
    <PP_R>
   1.823763931109033E-05   1.846704057338044E-05   1.869932734833164E-05
   1.893453593122508E-05   1.917270307388040E-05   1.941386599039818E-05
   1.965806236297477E-05   1.990533034779023E-05   2.015570858097021E-05
   2.040923618462309E-05   2.066595277295274E-05   2.092589845844837E-05
   2.118911385815220E-05   2.145564010000594E-05   2.172551882927716E-05
   2.199879221506636E-05   2.227550295689606E-05   2.255569429138265E-05
   2.283940999899215E-05   2.312669441088115E-05   2.341759241582349E-05
   2.371214946722426E-05   2.401041159022202E-05   2.431242538888029E-05
   2.461823805346962E-05   2.492789736784099E-05   2.524145171689229E-05
   2.555895009412849E-05   2.588044210931696E-05   2.620597799623920E-05
   2.653560862053983E-05   2.686938548767454E-05   2.720736075095788E-05
   2.754958721971234E-05   2.789611836751997E-05   2.824700834057763E-05
   2.860231196615749E-05   2.896208476117391E-05   2.932638294085806E-05
   2.969526342754174E-05   3.006878385955145E-05   3.044700260021463E-05
   3.082997874697900E-05   3.121777214064664E-05   3.161044337472434E-05
   3.200805380489128E-05   3.241066555858613E-05   3.281834154471452E-05
   3.323114546347868E-05   3.364914181633082E-05   3.407239591605148E-05
   3.450097389695485E-05   3.493494272522239E-05   3.537437020936641E-05
   3.581932501082539E-05   3.626987665469230E-05   3.672609554057814E-05
   3.718805295361202E-05   3.765582107557955E-05   3.812947299620153E-05
   3.860908272455419E-05   3.909472520063334E-05   3.958647630706394E-05
   4.008441288095678E-05   4.058861272591468E-05   4.109915462418918E-05
   4.161611834899059E-05   4.213958467695268E-05   4.266963540075416E-05
   4.320635334189909E-05   4.374982236365770E-05   4.430012738417034E-05
   4.485735438971607E-05   4.542159044814814E-05   4.599292372249872E-05
   4.657144348475428E-05   4.715724012980466E-05   4.775040518956747E-05
   4.835103134729007E-05   4.895921245203166E-05   4.957504353332717E-05
   5.019862081603597E-05   5.083004173537716E-05   5.146940495215400E-05
   5.211681036816997E-05   5.277235914183843E-05   5.343615370398901E-05
   5.410829777387253E-05   5.478889637536737E-05   5.547805585338977E-05
   5.617588389051025E-05   5.688248952377935E-05   5.759798316176486E-05
   5.832247660180335E-05   5.905608304746893E-05   5.979891712626121E-05
   6.055109490751630E-05   6.131273392054287E-05   6.208395317298617E-05
   6.286487316942361E-05   6.365561593019334E-05   6.445630501046053E-05
   6.526706551952296E-05   6.608802414035964E-05   6.691930914942543E-05
   6.776105043669423E-05   6.861337952595469E-05   6.947642959536107E-05
   7.035033549824257E-05   7.123523378417459E-05   7.213126272031461E-05
   7.303856231300687E-05   7.395727432965864E-05   7.488754232089161E-05
   7.582951164297215E-05   7.678332948052327E-05   7.774914486952260E-05
   7.872710872058967E-05   7.971737384256581E-05   8.072009496639117E-05
   8.173542876928133E-05   8.276353389920873E-05   8.380457099969159E-05
   8.485870273489480E-05   8.592609381504680E-05   8.700691102217538E-05
   8.810132323616813E-05   8.920950146116004E-05   9.033161885225334E-05
   9.146785074257346E-05   9.261837467066492E-05   9.378337040823222E-05
   9.496301998822956E-05   9.615750773330380E-05   9.736702028459526E-05
   9.859174663090103E-05   9.983187813820434E-05   1.010876085795763E-04
   1.023591341654531E-04   1.036466535742945E-04   1.049503679836277E-04
   1.062704811014815E-04   1.076071991982164E-04   1.089607311387546E-04
   1.103312884152154E-04   1.117190851799620E-04   1.131243382790622E-04
   1.145472672861717E-04   1.159880945368429E-04   1.174470451632650E-04
   1.189243471294419E-04   1.204202312668112E-04   1.219349313103128E-04
   1.234686839349101E-04   1.250217287925712E-04   1.265943085497149E-04
   1.281866689251277E-04   1.297990587283577E-04   1.314317298985924E-04
   1.330849375440235E-04   1.347589399817093E-04   1.364539987779366E-04
   1.381703787890907E-04   1.399083482030403E-04   1.416681785810424E-04
   1.434501449001740E-04   1.452545255962978E-04   1.470816026075687E-04
   1.489316614184869E-04   1.508049911045054E-04   1.527018843771992E-04
   1.546226376300014E-04   1.565675509845155E-04   1.585369283374101E-04
   1.605310774079031E-04   1.625503097858442E-04   1.645949409804006E-04
   1.666652904693562E-04   1.687616817490308E-04   1.708844423848268E-04
   1.730339040624127E-04   1.752104026395486E-04   1.774142781985652E-04
   1.796458750995025E-04   1.819055420339163E-04   1.841936320793628E-04
   1.865105027545665E-04   1.888565160752842E-04   1.912320386108703E-04
   1.936374415415537E-04   1.960731007164366E-04   1.985393967122202E-04
   2.010367148926717E-04   2.035654454688376E-04   2.061259835600148E-04
   2.087187292554901E-04   2.113440876770531E-04   2.140024690422985E-04
   2.166942887287232E-04   2.194199673386295E-04   2.221799307648461E-04
   2.249746102572733E-04   2.278044424902675E-04   2.306698696308726E-04
   2.335713394079089E-04   2.365093051819324E-04   2.394842260160724E-04
   2.424965667477620E-04   2.455467980613690E-04   2.486353965617416E-04
   2.517628448486799E-04   2.549296315923413E-04   2.581362516095975E-04
   2.613832059413498E-04   2.646710019308186E-04   2.680001533028166E-04
   2.713711802440187E-04   2.747846094842429E-04   2.782409743787526E-04
   2.817408149915944E-04   2.852846781799851E-04   2.888731176797576E-04
   2.925066941918844E-04   2.961859754700882E-04   2.999115364095541E-04
   3.036839591367589E-04   3.075038331004286E-04   3.113717551636418E-04
   3.152883296970900E-04   3.192541686735122E-04   3.232698917633175E-04
   3.273361264314085E-04   3.314535080352251E-04   3.356226799240195E-04
   3.398442935393813E-04   3.441190085170277E-04   3.484474927898703E-04
   3.528304226923833E-04   3.572684830662810E-04   3.617623673675259E-04
   3.663127777746836E-04   3.709204252986377E-04   3.755860298936882E-04
   3.803103205700451E-04   3.850940355077386E-04   3.899379221719599E-04
   3.948427374298556E-04   3.998092476687886E-04   4.048382289160878E-04
   4.099304669603051E-04   4.150867574739948E-04   4.203079061380406E-04
   4.255947287675435E-04   4.309480514392954E-04   4.363687106208555E-04
   4.418575533012489E-04   4.474154371233120E-04   4.530432305176994E-04
   4.587418128385786E-04   4.645120745010315E-04   4.703549171201821E-04
   4.762712536520776E-04   4.822620085363375E-04   4.883281178406007E-04
   4.944705294067879E-04   5.006902029992030E-04   5.069881104544989E-04
   5.133652358335287E-04   5.198225755751070E-04   5.263611386517063E-04
   5.329819467271097E-04   5.396860343160497E-04   5.464744489458513E-04
   5.533482513201116E-04   5.603085154844364E-04   5.673563289942620E-04
   5.744927930847886E-04   5.817190228430496E-04   5.890361473821458E-04
   5.964453100176742E-04   6.039476684463701E-04   6.115443949270019E-04
   6.192366764635379E-04   6.270257149906177E-04   6.349127275613591E-04
   6.428989465375214E-04   6.509856197820686E-04   6.591740108541473E-04
   6.674653992065216E-04   6.758610803854912E-04   6.843623662333207E-04
   6.929705850932205E-04   7.016870820169008E-04   7.105132189747392E-04
   7.194503750685933E-04   7.284999467472847E-04   7.376633480248003E-04
   7.469420107012324E-04   7.563373845865017E-04   7.658509377268932E-04
   7.754841566344401E-04   7.852385465191964E-04   7.951156315244264E-04
   8.051169549647570E-04   8.152440795673245E-04   8.254985877159510E-04
   8.358820816983983E-04   8.463961839567263E-04   8.570425373408037E-04
   8.678228053650075E-04   8.787386724681484E-04   8.897918442766704E-04
   9.009840478711564E-04   9.123170320561882E-04   9.237925676336024E-04
   9.354124476791796E-04   9.471784878228186E-04   9.590925265322295E-04
   9.711564254001995E-04   9.833720694354716E-04   9.957413673572788E-04
   1.008266251893587E-03   1.020948680083088E-03   1.033790633580988E-03
   1.046794118968648E-03   1.059961168067117E-03   1.073293838254603E-03
   1.086794212787950E-03   1.100464401128145E-03   1.114306539269928E-03
   1.128322790075547E-03   1.142515343612706E-03   1.156886417496770E-03
   1.171438257237271E-03   1.186173136588775E-03   1.201093357906159E-03
   1.216201252504360E-03   1.231499181022645E-03   1.246989533793469E-03
   1.262674731215968E-03   1.278557224134152E-03   1.294639494219851E-03
   1.310924054360487E-03   1.327413449051712E-03   1.344110254794996E-03
   1.361017080500205E-03   1.378136567893252E-03   1.395471391928873E-03
   1.413024261208592E-03   1.430797918403945E-03   1.448795140685030E-03
   1.467018740154443E-03   1.485471564286678E-03   1.504156496373048E-03
   1.523076455972207E-03   1.542234399366335E-03   1.561633320023063E-03
   1.581276249063214E-03   1.601166255734411E-03   1.621306447890666E-03
   1.641699972477977E-03   1.662350016026051E-03   1.683259805146208E-03
   1.704432607035537E-03   1.725871729987411E-03   1.747580523908409E-03
   1.769562380841746E-03   1.791820735497294E-03   1.814359065788250E-03
   1.837180893374579E-03   1.860289784213271E-03   1.883689349115534E-03
   1.907383244310993E-03   1.931375172018976E-03   1.955668881027002E-03
   1.980268167276527E-03   2.005176874456075E-03   2.030398894601822E-03
   2.055938168705728E-03   2.081798687331334E-03   2.107984491237288E-03
   2.134499672008724E-03   2.161348372696586E-03   2.188534788464978E-03
   2.216063167246678E-03   2.243937810406876E-03   2.272163073415275E-03
   2.300743366526649E-03   2.329683155469939E-03   2.358986962146050E-03
   2.388659365334393E-03   2.418705001408334E-03   2.449128565059639E-03
   2.479934810032025E-03   2.511128549863945E-03   2.542714658640713E-03
   2.574698071756085E-03   2.607083786683434E-03   2.639876863756605E-03
   2.673082426960609E-03   2.706705664732255E-03   2.740751830770849E-03
   2.775226244859106E-03   2.810134293694363E-03   2.845481431730272E-03
   2.881273182029066E-03   2.917515137124549E-03   2.954212959895937E-03
   2.991372384452702E-03   3.028999217030532E-03   3.067099336898570E-03
   3.105678697278061E-03   3.144743326272553E-03   3.184299327809806E-03
   3.224352882595536E-03   3.264910249079169E-03   3.305977764431731E-03
   3.347561845536051E-03   3.389668989989403E-03   3.432305777118775E-03
   3.475478869008903E-03   3.519195011543231E-03   3.563461035457970E-03
   3.608283857409417E-03   3.653670481054694E-03   3.699627998146087E-03
   3.746163589639142E-03   3.793284526814707E-03   3.840998172415083E-03
   3.889311981794472E-03   3.938233504083882E-03   3.987770383370705E-03
   4.037930359893110E-03   4.088721271249481E-03   4.140151053623054E-03
   4.192227743021957E-03   4.244959476534863E-03   4.298354493602413E-03
   4.352421137304659E-03   4.407167855664678E-03   4.462603202968598E-03
   4.518735841102219E-03   4.575574540904450E-03   4.633128183537777E-03
   4.691405761875954E-03   4.750416381909164E-03   4.810169264166845E-03
   4.870673745158416E-03   4.931939278832131E-03   4.993975438052272E-03
   5.056791916094931E-03   5.120398528162603E-03   5.184805212917832E-03
   5.250022034036147E-03   5.316059181778533E-03   5.382926974583678E-03
   5.450635860680254E-03   5.519196419719465E-03   5.588619364428148E-03
   5.658915542282658E-03   5.730095937203803E-03   5.802171671273108E-03
   5.875154006470659E-03   5.949054346434814E-03   6.023884238244044E-03
   6.099655374221187E-03   6.176379593760399E-03   6.254068885177077E-03
   6.332735387581067E-03   6.412391392773414E-03   6.493049347166996E-03
   6.574721853731285E-03   6.657421673961593E-03   6.741161729873089E-03
   6.825955106019875E-03   6.911815051539491E-03   6.998754982223110E-03
   7.086788482611777E-03   7.175929308119035E-03   7.266191387180227E-03
   7.357588823428849E-03   7.450135897900262E-03   7.543847071263141E-03
   7.638736986078981E-03   7.734820469090027E-03   7.832112533535981E-03
   7.930628381499860E-03   8.030383406283335E-03   8.131393194811985E-03
   8.233673530070772E-03   8.337240393570170E-03   8.442109967843312E-03
   8.548298638974536E-03   8.655822999159749E-03   8.764699849298988E-03
   8.874946201621601E-03   8.986579282344436E-03   9.099616534363473E-03
   9.214075619979320E-03   9.329974423656970E-03   9.447331054820297E-03
   9.566163850681686E-03   9.686491379107253E-03   9.808332441518125E-03
   9.931706075828195E-03   1.005663155941882E-02   1.018312841215099E-02
   1.031121639941529E-02   1.044091553522032E-02   1.057224608531995E-02
   1.070522857037981E-02   1.083988376918375E-02   1.097623272188053E-02
   1.111429673327143E-02   1.125409737613912E-02   1.139565649461846E-02
   1.153899620760974E-02   1.168413891223472E-02   1.183110728733630E-02
   1.197992429702211E-02   1.213061319425267E-02   1.228319752447476E-02
   1.243770112930041E-02   1.259414815023220E-02   1.275256303243547E-02
   1.291297052855785E-02   1.307539570259695E-02   1.323986393381668E-02
   1.340640092071279E-02   1.357503268502829E-02   1.374578557581945E-02
   1.391868627357284E-02   1.409376179437427E-02   1.427103949413006E-02
   1.445054707284145E-02   1.463231257893284E-02   1.481636441363436E-02
   1.500273133541964E-02   1.519144246449938E-02   1.538252728737142E-02
   1.557601566142810E-02   1.577193781962154E-02   1.597032437518755E-02
   1.617120632642905E-02   1.637461506155964E-02   1.658058236360802E-02
   1.678914041538416E-02   1.700032180450797E-02   1.721415952850116E-02
   1.743068699994316E-02   1.764993805169192E-02   1.787194694217032E-02
   1.809674836071920E-02   1.832437743301756E-02   1.855486972657107E-02
   1.878826125626952E-02   1.902458849001429E-02   1.926388835441644E-02
   1.950619824056666E-02   1.975155600987764E-02   2.000000000000001E-02
   2.025156903081270E-02   2.050630241048858E-02   2.076423994163651E-02
   2.102542192752049E-02   2.128988917835720E-02   2.155768301769264E-02
   2.182884528885904E-02   2.210341836151296E-02   2.238144513825562E-02
   2.266296906133653E-02   2.294803411944145E-02   2.323668485456567E-02
   2.352896636897382E-02   2.382492433224717E-02   2.412460498841962E-02
   2.442805516320341E-02   2.473532227130570E-02   2.504645432383730E-02
   2.536149993581440E-02   2.568050833375484E-02   2.600352936336983E-02
   2.633061349735244E-02   2.666181184326406E-02   2.699717615152007E-02
   2.733675882347594E-02   2.768061291961504E-02   2.802879216783948E-02
   2.838135097186516E-02   2.873834441972250E-02   2.909982829236404E-02
   2.946585907238032E-02   2.983649395282542E-02   3.021179084615346E-02
   3.059180839326759E-02   3.097660597268267E-02   3.136624370980338E-02
   3.176078248631888E-02   3.216028394971567E-02   3.256481052291021E-02
   3.297442541400258E-02   3.338919262615287E-02   3.380917696758184E-02
   3.423444406169730E-02   3.466506035734792E-02   3.510109313920599E-02
   3.554261053828078E-02   3.598968154256419E-02   3.644237600781020E-02
   3.690076466845001E-02   3.736491914864446E-02   3.783491197347541E-02
   3.831081658027793E-02   3.879270733011510E-02   3.928065951939696E-02
   3.977474939164585E-02   4.027505414940955E-02   4.078165196632432E-02
   4.129462199932974E-02   4.181404440103713E-02   4.234000033225351E-02
   4.287257197466320E-02   4.341184254366887E-02   4.395789630139405E-02
   4.451081856984938E-02   4.507069574426419E-02   4.563761530658609E-02
   4.621166583915010E-02   4.679293703851984E-02   4.738151972950282E-02
   4.797750587934198E-02   4.858098861208578E-02   4.919206222313902E-02
   4.981082219399664E-02   5.043736520716299E-02   5.107178916125856E-02
   5.171419318631695E-02   5.236467765927404E-02   5.302334421965216E-02
   5.369029578544143E-02   5.436563656918093E-02   5.504947209424211E-02
   5.574190921131703E-02   5.644305611511403E-02   5.715302236126330E-02
   5.787191888343524E-02   5.859985801067405E-02   5.933695348494937E-02
   6.008332047892870E-02   6.083907561397330E-02   6.160433697836066E-02
   6.237922414573587E-02   6.316385819379539E-02   6.395836172320554E-02
   6.476285887675924E-02   6.557747535877351E-02   6.640233845473098E-02
   6.723757705116860E-02   6.808332165581642E-02   6.893970441798952E-02
   6.980685914923686E-02   7.068492134424942E-02   7.157402820203161E-02
   7.247431864733887E-02   7.338593335238493E-02   7.430901475882211E-02
   7.524370709999824E-02   7.619015642349325E-02   7.714851061393953E-02
   7.811891941612908E-02   7.910153445841157E-02   8.009650927638652E-02
   8.110399933689352E-02   8.212416206230429E-02   8.315715685512019E-02
   8.420314512287926E-02   8.526229030337638E-02   8.633475789020092E-02
   8.742071545859520E-02   8.852033269163873E-02   8.963378140676134E-02
   9.076123558259010E-02   9.190287138613382E-02   9.305886720030947E-02
   9.422940365181487E-02   9.541466363935211E-02   9.661483236220562E-02
   9.783009734918015E-02   9.906064848790236E-02   1.003066780544912E-01
   1.015683807436017E-01   1.028459536988458E-01   1.041395965435970E-01
   1.054495114121819E-01   1.067759029814636E-01   1.081189785028234E-01
   1.094789478345440E-01   1.108560234746005E-01   1.122504205938632E-01
   1.136623570697189E-01   1.150920535201147E-01   1.165397333380295E-01
   1.180056227263804E-01   1.194899507333665E-01   1.209929492882590E-01
   1.225148532376398E-01   1.240559003820974E-01   1.256163315133833E-01
   1.271963904520367E-01   1.287963240854813E-01   1.304163824066023E-01
   1.320568185528086E-01   1.337178888455855E-01   1.353998528305456E-01
   1.371029733179836E-01   1.388275164239408E-01   1.405737516117859E-01
   1.423419517343200E-01   1.441323930764094E-01   1.459453553981567E-01
   1.477811219786131E-01   1.496399796600417E-01   1.515222188927370E-01
   1.534281337804087E-01   1.553580221261356E-01   1.573121854788979E-01
   1.592909291806955E-01   1.612945624142575E-01   1.633233982513531E-01
   1.653777537017095E-01   1.674579497625454E-01   1.695643114687276E-01
   1.716971679435579E-01   1.738568524502002E-01   1.760437024437523E-01
   1.782580596239748E-01   1.805002699886825E-01   1.827706838878066E-01
   1.850696560781380E-01   1.873975457787587E-01   1.897547167271706E-01
   1.921415372361302E-01   1.945583802511978E-01   1.970056234090118E-01
   1.994836490962945E-01   2.019928445096011E-01   2.045336017158201E-01
   2.071063177134339E-01   2.097113944945516E-01   2.123492391077202E-01
   2.150202637215272E-01   2.177248856890029E-01   2.204635276128321E-01
   2.232366174113875E-01   2.260445883855918E-01   2.288878792866225E-01
   2.317669343844679E-01   2.346822035373443E-01   2.376341422619881E-01
   2.406232118048308E-01   2.436498792140696E-01   2.467146174126452E-01
   2.498179052721363E-01   2.529602276875846E-01   2.561420756532609E-01
   2.593639463393828E-01   2.626263431698005E-01   2.659297759006558E-01
   2.692747607000339E-01   2.726618202286153E-01   2.760914837213420E-01
   2.795642870701128E-01   2.830807729075162E-01   2.866414906916187E-01
   2.902469967918185E-01   2.938978545757790E-01   2.975946344974569E-01
   3.013379141862358E-01   3.051282785371833E-01   3.089663198024405E-01
   3.128526376837636E-01   3.167878394262285E-01   3.207725399131135E-01
   3.248073617619769E-01   3.288929354219413E-01   3.330298992722030E-01
   3.372188997217808E-01   3.414605913105172E-01   3.457556368113530E-01
   3.501047073338858E-01   3.545084824292330E-01   3.589676501962130E-01
   3.634829073888614E-01   3.680549595253011E-01   3.726845209979803E-01
   3.773723151852978E-01   3.821190745646332E-01   3.869255408267964E-01
   3.917924649919201E-01   3.967206075268067E-01   4.017107384637535E-01
   4.067636375208724E-01   4.118800942239207E-01   4.170609080296683E-01
   4.223068884508125E-01   4.276188551824671E-01   4.329976382302413E-01
   4.384440780399295E-01   4.439590256288329E-01   4.495433427187325E-01
   4.551979018705347E-01   4.609235866206118E-01   4.667212916188545E-01
   4.725919227684646E-01   4.785363973675030E-01   4.845556442522198E-01
   4.906506039421872E-01   4.968222287872570E-01   5.030714831163675E-01
   5.093993433882219E-01   5.158067983438615E-01   5.222948491611595E-01
   5.288645096112561E-01   5.355168062169627E-01   5.422527784131581E-01
   5.490734787092023E-01   5.559799728533936E-01   5.629733399994931E-01
   5.700546728753458E-01   5.772250779536207E-01   5.844856756246990E-01
   5.918376003717394E-01   5.992820009479405E-01   6.068200405560387E-01
   6.144528970300587E-01   6.221817630193535E-01   6.300078461749590E-01
   6.379323693382903E-01   6.459565707322139E-01   6.540817041545235E-01
   6.623090391738465E-01   6.706398613280190E-01   6.790754723249514E-01
   6.876171902460240E-01   6.962663497520409E-01   7.050243022917713E-01
   7.138924163131180E-01   7.228720774769389E-01   7.319646888735601E-01
   7.411716712420119E-01   7.504944631920203E-01   7.599345214287956E-01
   7.694933209806430E-01   7.791723554294397E-01   7.889731371440111E-01
   7.988971975164391E-01   8.089460872013483E-01   8.191213763581965E-01
   8.294246548966154E-01   8.398575327248402E-01   8.504216400012561E-01
   8.611186273891188E-01   8.719501663144706E-01   8.829179492273050E-01
   8.940236898660171E-01   9.052691235251757E-01   9.166560073266699E-01
   9.281861204942600E-01   9.398612646315861E-01   9.516832640036741E-01
   9.636539658219767E-01   9.757752405330088E-01   9.880489821106043E-01
   1.000477108351855E+00   1.013061561176773E+00   1.025804306931714E+00
   1.038707336696629E+00   1.051772666596170E+00   1.065002338114713E+00
   1.078398418415351E+00   1.091963000662886E+00   1.105698204350889E+00
   1.119606175632883E+00   1.133689087657676E+00   1.147949140908925E+00
   1.162388563548961E+00   1.177009611766948E+00   1.191814570131420E+00
   1.206805751947240E+00   1.221985499617067E+00   1.237356185007359E+00
   1.252920209818977E+00   1.268680005962467E+00   1.284638035938038E+00
   1.300796793220340E+00   1.317158802648075E+00   1.333726620818504E+00
   1.350502836486923E+00   1.367490070971163E+00   1.384690978561173E+00
   1.402108246933758E+00   1.419744597572539E+00   1.437602786193181E+00
   1.455685603173994E+00   1.473995873991917E+00   1.492536459664020E+00
   1.511310257194534E+00   1.530320200027518E+00   1.549569258505218E+00
   1.569060440332183E+00   1.588796791045228E+00   1.608781394489306E+00
   1.629017373299363E+00   1.649507889388261E+00   1.670256144440825E+00
   1.691265380414122E+00   1.712538880044013E+00   1.734079967358098E+00
   1.755892008195097E+00   1.777978410730767E+00   1.800342626010438E+00
   1.822988148488249E+00   1.845918516573158E+00   1.869137313181833E+00
   1.892648166298483E+00   1.916454749541739E+00   1.940560782738669E+00
   1.964970032506001E+00   1.989686312838677E+00   2.014713485705782E+00
   2.040055461653996E+00   2.065716200418617E+00   2.091699711542284E+00
   2.118010055001478E+00   2.144651341840891E+00   2.171627734815794E+00
   2.198943449042472E+00   2.226602752656847E+00   2.254609967481385E+00
   2.282969469700381E+00   2.311685690543755E+00   2.340763116979438E+00
   2.370206292414467E+00   2.400019817404909E+00   2.430208350374699E+00
   2.460776608343533E+00   2.491729367663909E+00   2.523071464767443E+00
   2.554807796920578E+00   2.586943322989780E+00   2.619483064216374E+00
   2.652432105001133E+00   2.685795593698710E+00   2.719578743422099E+00
   2.753786832857175E+00   2.788425207087506E+00   2.823499278429540E+00
   2.859014527278280E+00   2.894976502963620E+00   2.931390824617424E+00
   2.968263182051535E+00   3.005599336646820E+00   3.043405122253392E+00
   3.081686446102176E+00   3.120449289727902E+00   3.159699709903752E+00
   3.199443839587734E+00   3.239687888880967E+00   3.280438145998037E+00
   3.321700978249522E+00   3.363482833036912E+00   3.405790238860023E+00
   3.448629806337087E+00   3.492008229237686E+00   3.535932285528649E+00
   3.580408838433137E+00   3.625444837503027E+00   3.671047319704800E+00
   3.717223410519083E+00   3.763980325054010E+00   3.811325369172603E+00
   3.859265940634332E+00   3.907809530251019E+00   3.956963723057311E+00
   4.006736199495837E+00   4.057134736617301E+00   4.108167209295667E+00
   4.159841591458613E+00   4.212165957333491E+00   4.265148482708921E+00
   4.318797446212286E+00   4.373121230603283E+00   4.428128324083743E+00
   4.483827321623941E+00   4.540226926305562E+00   4.597335950681581E+00
   4.655163318153246E+00   4.713718064364373E+00   4.773009338613194E+00
   4.833046405281936E+00   4.893838645284412E+00   4.955395557531807E+00
   5.017726760416892E+00   5.080841993316941E+00   5.144751118115499E+00
   5.209464120743340E+00   5.274991112738785E+00   5.341342332827643E+00
   5.408528148523056E+00   5.476559057745411E+00   5.545445690462684E+00
   5.615198810351391E+00   5.685829316478419E+00   5.757348245004062E+00
   5.829766770906404E+00   5.903096209727450E+00   5.977348019341211E+00
   6.052533801743997E+00   6.128665304867286E+00   6.205754424413328E+00
   6.283813205713890E+00   6.362853845612361E+00   6.442888694369531E+00
   6.523930257593361E+00   6.605991198192978E+00   6.689084338357307E+00
   6.773222661558552E+00   6.858419314580888E+00   6.944687609574695E+00
   7.032041026136576E+00   7.120493213415589E+00   7.210057992245954E+00
   7.300749357306578E+00   7.392581479307778E+00   7.485568707205443E+00
   7.579725570443117E+00   7.675066781222244E+00   7.771607236800976E+00
   7.869362021821923E+00   7.968346410669119E+00   8.068575869854710E+00
   8.170066060435611E+00   8.272832840460575E+00   8.376892267448079E+00
   8.482260600895291E+00   8.588954304818687E+00   8.696990050326573E+00
   8.806384718223978E+00   8.917155401650342E+00   9.029319408750311E+00
   9.142894265378187E+00   9.257897717836391E+00   9.374347735648341E+00
   9.492262514366249E+00   9.611660478414187E+00   9.732560283966952E+00
   9.854980821865135E+00   9.978941220566840E+00   1.010446084913658E+01
   1.023155932027168E+01   1.036025649336685E+01   1.049057247761721E+01
   1.062252763516042E+01   1.075614258425834E+01   1.089143820251859E+01
   1.102843563015679E+01   1.116715627329972E+01   1.130762180733010E+01
   1.144985418027343E+01   1.159387561622733E+01   1.173970861883419E+01
   1.188737597479737E+01   1.203690075744164E+01   1.218830633031855E+01
   1.234161635085687E+01   1.249685477405923E+01   1.265404585624508E+01
   1.281321415884082E+01   1.297438455221757E+01   1.313758221957720E+01
   1.330283266088725E+01   1.347016169686539E+01   1.363959547301391E+01
   1.381116046370508E+01   1.398488347631772E+01   1.416079165542600E+01
   1.433891248704080E+01   1.451927380290443E+01   1.470190378483947E+01
   1.488683096915214E+01   1.507408425109124E+01   1.526369288936303E+01
   1.545568651070300E+01   1.565009511450512E+01   1.584694907750924E+01
   1.604627915854759E+01   1.624811650335088E+01   1.645249264941485E+01
   1.665943953092816E+01   1.686898948376207E+01   1.708117525052305E+01
   1.729602998566883E+01   1.751358726068892E+01   1.773388106935017E+01
   1.795694583300837E+01   1.818281640598666E+01   1.841152808102162E+01
   1.864311659477777E+01   1.887761813343158E+01   1.911506933832555E+01
   1.935550731169355E+01   1.959896962245809E+01   1.984549431210052E+01
   2.009511990060522E+01   2.034788539247823E+01   2.060383028284189E+01
   2.086299456360608E+01   2.112541872971690E+01   2.139114378548426E+01
   2.166021125098872E+01   2.193266316856919E+01   2.220854210939210E+01
   2.248789118010321E+01   2.277075402956320E+01   2.305717485566777E+01
   2.334719841225373E+01   2.364087001609184E+01   2.393823555396767E+01
   2.423934148985155E+01   2.454423487215854E+01   2.485296334109994E+01