<UPF version="2.0.1">
  <PP_INFO>
    Generated using "atomic" code by A. Dal Corso  v.7.2
    Author: ADC
    Generation date: 31May2024
    Pseudopotential type: PAW
    Element: Te
    Functional:  SLA  PW   BEEX BEEC
    Suggested minimum cutoff for wavefunctions:  82. Ry
    Suggested minimum cutoff for charge density: 328. Ry
    The Pseudo was generated with a Scalar-Relativistic Calculation
    Local Potential by smoothing AE potential with Bessel fncs, cutoff radius:   2.1000
    Valence configuration: 
    nl pn  l   occ       Rcut    Rcut US       E pseu
    5S  1  0  2.00      1.600      1.800    -1.129114
    5P  2  1  4.00      1.700      1.900    -0.454931
    4D  3  2 10.00      1.200      1.600    -3.120155
    Generation configuration:
    5S  1  0  2.00      1.600      1.800    -1.129111
    5S  1  0  0.00      1.600      1.800     6.000000
    5P  2  1  4.00      1.700      1.900    -0.454932
    5P  2  1  0.00      1.700      1.900     6.000000
    4D  3  2 10.00      1.200      1.600    -3.120157
    4D  3  2  0.00      1.200      1.600     0.050000
    Pseudization used: troullier-martins
    <PP_INPUTFILE>
@input
title='Te',
zed=52.,
rel=1,
config='[Kr] 5s2 5p4 4d10',
iswitch=3,
dft='SLA-PW-BEEX-BEEC'
/
@inputp
lpaw=.true.,
pseudotype=3,
file_pseudopw='Te.beef-dn-kjpaw_psl.1.0.0.UPF',
author='ADC',
lloc=-1,
rcloc=2.1,
which_augfun='PSQ',
rmatch_augfun_nc=.true.,
nlcc=.true.,
new_core_ps=.true.,
rcore=1.2,
tm=.true.
/
6
5S  1  0  2.00  0.00  1.60  1.80  0.0
5S  1  0  0.00  6.00  1.60  1.80  0.0
5P  2  1  4.00  0.00  1.70  1.90  0.0
5P  2  1  0.00  6.00  1.70  1.90  0.0
4D  3  2 10.00  0.00  1.20  1.60  0.0
4D  3  2  0.00  0.05  1.20  1.60  0.0
    </PP_INPUTFILE>
  </PP_INFO>
    <!-- END OF HUMAN READABLE SECTION -->
  <PP_HEADER generated="Generated using 'atomic' code by A. Dal Corso  v.7.2" author="ADC" date="31May2024" comment="" element="Te" pseudo_type="PAW" relativistic="scalar" is_ultrasoft="true" is_paw="true" is_coulomb="false" has_so="false" has_wfc="true" has_gipaw="false" paw_as_gipaw="false" core_correction="true" functional=" SLA  PW   BEEX BEEC" z_valence="16.0000000000000" total_psenergy="-524.579218291253" wfc_cutoff="81.9688230376551" rho_cutoff="327.875292150620" l_max="2" l_max_rho="4" l_local="-1" mesh_size="1245" number_of_wfc="3" number_of_proj="6"/>
  <PP_MESH mesh="1245" dx="1.250000000000000E-002" xmin="-7.00000000000000" rmax="100.000000000000" zmesh="52.0000000000000">
    <PP_R>
   1.753619164527916E-05   1.775676978209658E-05   1.798012245031889E-05
   1.820628454925488E-05   1.843529141719269E-05   1.866717883692133E-05
   1.890198304132190E-05   1.913974071902906E-05   1.938048902016366E-05
   1.962426556213759E-05   1.987110843553148E-05   2.012105621004651E-05
   2.037414794053097E-05   2.063042317308263E-05   2.088992195122804E-05
   2.115268482217920E-05   2.141875284316929E-05   2.168816758786793E-05
   2.196097115287707E-05   2.223720616430880E-05   2.251691578444566E-05
   2.280014371848486E-05   2.308693422136732E-05   2.337733210469259E-05
   2.367138274372079E-05   2.396913208446249E-05   2.427062665085797E-05
   2.457591355204662E-05   2.488504048972785E-05   2.519805576561462E-05
   2.551500828898061E-05   2.583594758430244E-05   2.616092379899796E-05
   2.648998771126187E-05   2.682319073799998E-05   2.716058494286311E-05
   2.750222304438220E-05   2.784815842420568E-05   2.819844513544044E-05
   2.855313791109782E-05   2.891229217264562E-05   2.927596403866792E-05
   2.964421033363366E-05   3.001708859677562E-05   3.039465709108110E-05
   3.077697481239547E-05   3.116410149864051E-05   3.155609763914858E-05
   3.195302448411411E-05   3.235494405416425E-05   3.276191915004950E-05
   3.317401336245659E-05   3.359129108194461E-05   3.401381750900617E-05
   3.444165866425519E-05   3.487488139874260E-05   3.531355340440206E-05
   3.575774322462694E-05   3.620752026498034E-05   3.666295480403993E-05
   3.712411800437903E-05   3.759108192368591E-05   3.806391952602301E-05
   3.854270469322767E-05   3.902751223645642E-05   3.951841790787421E-05
   4.001549841249095E-05   4.051883142014681E-05   4.102849557764823E-05
   4.154457052105682E-05   4.206713688813240E-05   4.259627633093302E-05
   4.313207152857314E-05   4.367460620014244E-05   4.422396511778723E-05
   4.478023411995604E-05   4.534350012481217E-05   4.591385114381487E-05
   4.649137629547122E-05   4.707616581926121E-05   4.766831108973766E-05
   4.826790463080382E-05   4.887504013017035E-05   4.948981245399423E-05
   5.011231766170189E-05   5.074265302099849E-05   5.138091702306635E-05
   5.202720939795436E-05   5.268163113016093E-05   5.334428447441324E-05
   5.401527297164448E-05   5.469470146517246E-05   5.538267611708160E-05
   5.607930442481092E-05   5.678469523795090E-05   5.749895877525116E-05
   5.822220664184260E-05   5.895455184667583E-05   5.969610882017902E-05
   6.044699343213808E-05   6.120732300980129E-05   6.197721635621205E-05
   6.275679376877209E-05   6.354617705803812E-05   6.434548956675523E-05
   6.515485618912907E-05   6.597440339034104E-05   6.680425922630872E-05
   6.764455336369478E-05   6.849541710016788E-05   6.935698338491789E-05
   7.022938683942968E-05   7.111276377851792E-05   7.200725223162654E-05
   7.291299196439631E-05   7.383012450050314E-05   7.475879314377173E-05
   7.569914300056699E-05   7.665132100246713E-05   7.761547592922228E-05
   7.859175843200128E-05   7.958032105693148E-05   8.058131826893422E-05
   8.159490647586039E-05   8.262124405292961E-05   8.366049136747632E-05
   8.471281080400781E-05   8.577836678957696E-05   8.685732581947436E-05
   8.794985648324371E-05   8.905612949102395E-05   9.017631770022329E-05
   9.131059614252841E-05   9.245914205125366E-05   9.362213488903391E-05
   9.479975637586638E-05   9.599219051750417E-05   9.719962363420796E-05
   9.842224438985876E-05   9.966024382143702E-05   1.009138153688728E-04
   1.021831549052707E-04   1.034684607675158E-04   1.047699337872640E-04
   1.060877773223225E-04   1.074221972884250E-04   1.087734021914059E-04
   1.101416031597805E-04   1.115270139777336E-04   1.129298511185241E-04
   1.143503337783095E-04   1.157886839103954E-04   1.172451262599161E-04
   1.187198883989521E-04   1.202132007620877E-04   1.217252966824182E-04
   1.232564124280074E-04   1.248067872388055E-04   1.263766633640311E-04
   1.279662861000226E-04   1.295759038285667E-04   1.312057680557082E-04
   1.328561334510487E-04   1.345272578875388E-04   1.362194024817715E-04
   1.379328316347827E-04   1.396678130733633E-04   1.414246178918930E-04
   1.432035205946989E-04   1.450047991389475E-04   1.468287349780762E-04
   1.486756131057706E-04   1.505457221004956E-04   1.524393541705866E-04
   1.543568051999068E-04   1.562983747940810E-04   1.582643663273083E-04
   1.602550869897656E-04   1.622708478356065E-04   1.643119638315642E-04
   1.663787539061661E-04   1.684715409995659E-04   1.705906521140050E-04
   1.727364183649062E-04   1.749091750326118E-04   1.771092616147719E-04
   1.793370218793909E-04   1.815928039185425E-04   1.838769602027599E-04
   1.861898476361093E-04   1.885318276119582E-04   1.909032660694425E-04
   1.933045335506459E-04   1.957360052584976E-04   1.981980611153989E-04
   2.006910858225866E-04   2.032154689202434E-04   2.057716048483640E-04
   2.083598930083877E-04   2.109807378256053E-04   2.136345488123520E-04
   2.163217406319936E-04   2.190427331637188E-04   2.217979515681468E-04
   2.245878263537585E-04   2.274127934441657E-04   2.302732942462235E-04
   2.331697757190019E-04   2.361026904436240E-04   2.390724966939823E-04
   2.420796585083461E-04   2.451246457618667E-04   2.482079342399976E-04
   2.513300057128364E-04   2.544913480104025E-04   2.576924550988621E-04
   2.609338271577102E-04   2.642159706579258E-04   2.675393984411083E-04
   2.709046297996101E-04   2.743121905576780E-04   2.777626131536130E-04
   2.812564367229658E-04   2.847942071827772E-04   2.883764773168789E-04
   2.920038068622682E-04   2.956767625965660E-04   2.993959184265786E-04
   3.031618554779712E-04   3.069751621860694E-04   3.108364343878053E-04
   3.147462754148159E-04   3.187052961877165E-04   3.227141153115572E-04
   3.267733591724820E-04   3.308836620356035E-04   3.350456661441060E-04
   3.392600218195993E-04   3.435273875637318E-04   3.478484301610826E-04
   3.522238247833496E-04   3.566542550948439E-04   3.611404133593156E-04
   3.656830005481203E-04   3.702827264497487E-04   3.749403097807307E-04
   3.796564782979381E-04   3.844319689122967E-04   3.892675278039306E-04
   3.941639105387550E-04   3.991218821865335E-04   4.041422174404237E-04
   4.092257007380226E-04   4.143731263839379E-04   4.195852986738995E-04
   4.248630320204316E-04   4.302071510801077E-04   4.356184908824033E-04
   4.410978969601717E-04   4.466462254817611E-04   4.522643433847905E-04
   4.579531285116131E-04   4.637134697464784E-04   4.695462671544237E-04
   4.754524321219115E-04   4.814328874992336E-04   4.874885677447105E-04
   4.936204190707006E-04   4.998293995914489E-04   5.061164794727945E-04
   5.124826410837593E-04   5.189288791500478E-04   5.254562009094725E-04
   5.320656262693380E-04   5.387581879658042E-04   5.455349317252519E-04
   5.523969164276814E-04   5.593452142721630E-04   5.663809109443709E-04
   5.735051057862252E-04   5.807189119676635E-04   5.880234566605787E-04
   5.954198812149402E-04   6.029093413371325E-04   6.104930072705375E-04
   6.181720639783859E-04   6.259477113289122E-04   6.338211642828340E-04
   6.417936530831938E-04   6.498664234475877E-04   6.580407367628083E-04
   6.663178702819428E-04   6.746991173239431E-04   6.831857874757108E-04
   6.917792067967244E-04   7.004807180262353E-04   7.092916807930772E-04
   7.182134718281081E-04   7.272474851793286E-04   7.363951324297050E-04
   7.456578429177309E-04   7.550370639607657E-04   7.645342610811792E-04
   7.741509182353433E-04   7.838885380455044E-04   7.937486420345682E-04
   8.037327708638446E-04   8.138424845737754E-04   8.240793628276959E-04
   8.344450051586611E-04   8.449410312193734E-04   8.555690810352600E-04
   8.663308152607273E-04   8.772279154386424E-04   8.882620842630793E-04
   8.994350458453650E-04   9.107485459834794E-04   9.222043524348360E-04
   9.338042551924995E-04   9.455500667648766E-04   9.574436224589220E-04
   9.694867806669111E-04   9.816814231568157E-04   9.940294553663345E-04
   1.006532806700623E-03   1.019193430833766E-03   1.032013306014041E-03
   1.044994435373029E-03   1.058138847238601E-03   1.071448595451854E-03
   1.084925759688026E-03   1.098572445781448E-03   1.112390786054586E-03
   1.126382939651222E-03   1.140551092873822E-03   1.154897459525153E-03
   1.169424281254192E-03   1.184133827906389E-03   1.199028397878335E-03
   1.214110318476892E-03   1.229381946282838E-03   1.244845667519088E-03
   1.260503898423545E-03   1.276359085626646E-03   1.292413706533650E-03
   1.308670269711735E-03   1.325131315281973E-03   1.341799415316224E-03
   1.358677174239031E-03   1.375767229234563E-03   1.393072250658683E-03
   1.410594942456195E-03   1.428338042583344E-03   1.446304323435623E-03
   1.464496592280968E-03   1.482917691698399E-03   1.501570500022176E-03
   1.520457931791552E-03   1.539582938206164E-03   1.558948507587178E-03
   1.578557665844208E-03   1.598413476948126E-03   1.618519043409815E-03
   1.638877506764939E-03   1.659492048064818E-03   1.680365888373470E-03
   1.701502289270910E-03   1.722904553362783E-03   1.744576024796394E-03
   1.766520089783249E-03   1.788740177128145E-03   1.811239758764936E-03
   1.834022350299032E-03   1.857091511556708E-03   1.880450847141348E-03
   1.904104006996660E-03   1.928054686976995E-03   1.952306629424829E-03
   1.976863623755507E-03   2.001729507049359E-03   2.026908164651238E-03
   2.052403530777619E-03   2.078219589131333E-03   2.104360373524018E-03
   2.130829968506421E-03   2.157632510006611E-03   2.184772185976226E-03
   2.212253237044854E-03   2.240079957182634E-03   2.268256694371202E-03
   2.296787851283071E-03   2.325677885969552E-03   2.354931312557345E-03
   2.384552701953870E-03   2.414546682561486E-03   2.444917941000685E-03
   2.475671222842389E-03   2.506811333349456E-03   2.538343138227504E-03
   2.570271564385201E-03   2.602601600704091E-03   2.635338298818124E-03
   2.668486773902986E-03   2.702052205475349E-03   2.736039838202185E-03
   2.770454982720256E-03   2.805303016465912E-03   2.840589384515324E-03
   2.876319600435290E-03   2.912499247144742E-03   2.949133977787087E-03
   2.986229516613520E-03   3.023791659877455E-03   3.061826276740198E-03
   3.100339310188015E-03   3.139336777960739E-03   3.178824773492049E-03
   3.218809466861588E-03   3.259297105759041E-03   3.300294016460361E-03
   3.341806604816253E-03   3.383841357253107E-03   3.426404841786510E-03
   3.469503709047516E-03   3.513144693321821E-03   3.557334613602007E-03
   3.602080374653021E-03   3.647388968091064E-03   3.693267473476041E-03
   3.739723059417761E-03   3.786762984696040E-03   3.834394599394908E-03
   3.882625346051066E-03   3.931462760816809E-03   3.980914474637552E-03
   4.030988214444190E-03   4.081691804360446E-03   4.133033166925397E-03
   4.185020324331403E-03   4.237661399677575E-03   4.290964618239036E-03
   4.344938308752134E-03   4.399590904715817E-03   4.454930945709402E-03
   4.510967078726879E-03   4.567708059528042E-03   4.625162754006582E-03
   4.683340139575400E-03   4.742249306569356E-03   4.801899459665646E-03
   4.862299919322049E-03   4.923460123233272E-03   4.985389627805608E-03
   5.048098109650141E-03   5.111595367094744E-03   5.175891321715075E-03
   5.240996019884860E-03   5.306919634345639E-03   5.373672465796296E-03
   5.441264944502556E-03   5.509707631926734E-03   5.579011222377989E-03
   5.649186544683326E-03   5.720244563879628E-03   5.792196382926966E-03
   5.865053244443448E-03   5.938826532461922E-03   6.013527774208729E-03
   6.089168641904872E-03   6.165760954589821E-03   6.243316679968265E-03
   6.321847936280081E-03   6.401366994193840E-03   6.481886278724124E-03
   6.563418371172957E-03   6.645976011095665E-03   6.729572098291452E-03
   6.814219694819016E-03   6.899932027037533E-03   6.986722487673296E-03
   7.074604637912355E-03   7.163592209519482E-03   7.253699106983790E-03
   7.344939409691328E-03   7.437327374125026E-03   7.530877436092291E-03
   7.625604212980635E-03   7.721522506041669E-03   7.818647302703831E-03
   7.916993778914205E-03   8.016577301509779E-03   8.117413430618569E-03
   8.219517922090901E-03   8.322906729961296E-03   8.427596008941335E-03
   8.533602116943846E-03   8.640941617638880E-03   8.749631283041803E-03
   8.859688096133961E-03   8.971129253516317E-03   9.083972168096439E-03
   9.198234471809312E-03   9.313934018372359E-03   9.431088886075122E-03
   9.549717380604032E-03   9.669838037902714E-03   9.791469627068257E-03
   9.914631153283929E-03   1.003934186078877E-02   1.016562123588457E-02
   1.029348900998059E-02   1.042296516267668E-02   1.055406992488513E-02
   1.068682378199176E-02   1.082124747705684E-02   1.095736201405622E-02
   1.109518866116321E-02   1.123474895407185E-02   1.137606469936183E-02
   1.151915797790588E-02   1.166405114831988E-02   1.181076685045650E-02
   1.195932800894270E-02   1.210975783676174E-02   1.226207983888026E-02
   1.241631781592101E-02   1.257249586788168E-02   1.273063839790066E-02
   1.289077011606999E-02   1.305291604329644E-02   1.321710151521101E-02
   1.338335218612774E-02   1.355169403305219E-02   1.372215335974044E-02
   1.389475680080909E-02   1.406953132589696E-02   1.424650424387920E-02
   1.442570320713427E-02   1.460715621586478E-02   1.479089162247252E-02
   1.497693813598856E-02   1.516532482655917E-02   1.535608112998803E-02
   1.554923685233563E-02   1.574482217457658E-02   1.594286765731540E-02
   1.614340424556169E-02   1.634646327356536E-02   1.655207646971266E-02
   1.676027596148381E-02   1.697109428047299E-02   1.718456436747146E-02
   1.740071957761461E-02   1.761959368559381E-02   1.784122089093371E-02
   1.806563582333608E-02   1.829287354809066E-02   1.852296957155427E-02
   1.875595984669871E-02   1.899188077872849E-02   1.923076923076924E-02
   1.947266252962759E-02   1.971759847162364E-02   1.996561532849665E-02
   2.021675185338509E-02   2.047104728688192E-02   2.072854136316600E-02
   2.098927431621062E-02   2.125328688607016E-02   2.152062032524579E-02
   2.179131640513128E-02   2.206541742253986E-02   2.234296620631315E-02
   2.262400612401329E-02   2.290858108869920E-02   2.319673556578810E-02
   2.348851458000328E-02   2.378396372240933E-02   2.408312915753586E-02
   2.438605763059077E-02   2.469279647476427E-02   2.500339361862484E-02
   2.531789759360812E-02   2.563635754160006E-02   2.595882322261545E-02
   2.628534502257302E-02   2.661597396116831E-02   2.695076169984565E-02
   2.728976054987034E-02   2.763302348050240E-02   2.798060412727311E-02
   2.833255680036569E-02   2.868893649310137E-02   2.904979889053218E-02
   2.941520037814191E-02   2.978519805065642E-02   3.015984972096480E-02
   3.053921392915277E-02   3.092334995164969E-02   3.131231781049059E-02
   3.170617828269479E-02   3.210499290976238E-02   3.250882400729023E-02
   3.291773467470895E-02   3.333178880514223E-02   3.375105109539037E-02
   3.417558705603922E-02   3.460546302169634E-02   3.504074616135595E-02
   3.548150448889424E-02   3.592780687369660E-02   3.637972305141866E-02
   3.683732363488263E-02   3.730068012511067E-02   3.776986492249707E-02
   3.824495133812102E-02   3.872601360520149E-02   3.921312689069646E-02
   3.970636730704783E-02   4.020581192407417E-02   4.071153878101300E-02
   4.122362689871462E-02   4.174215629198930E-02   4.226720798210967E-02
   4.279886400947056E-02   4.333720744640787E-02   4.388232241017893E-02
   4.443429407610587E-02   4.499320869088446E-02   4.555915358606041E-02
   4.613221719167498E-02   4.671248905008248E-02   4.730005982994136E-02
   4.789502134038138E-02   4.849746654534903E-02   4.910748957813323E-02
   4.972518575607399E-02   5.035065159545581E-02   5.098398482658861E-02
   5.162528440907829E-02   5.227465054728935E-02   5.293218470600203E-02
   5.359798962626638E-02   5.427216934145580E-02   5.495482919352241E-02
   5.564607584945696E-02   5.634601731795582E-02   5.705476296629747E-02
   5.777242353743144E-02   5.849911116728202E-02   5.923493940226986E-02
   5.998002321705372E-02   6.073447903249556E-02   6.149842473385148E-02
   6.227197968919158E-02   6.305526476805144E-02   6.384840236031825E-02
   6.465151639535444E-02   6.546473236136194E-02   6.628817732498993E-02
   6.712197995118928E-02   6.796627052331675E-02   6.882118096349193E-02
   6.968684485321046E-02   7.056339745421628E-02   7.145097572963664E-02
   7.234971836538293E-02   7.325976579182043E-02   7.418126020571109E-02
   7.511434559243181E-02   7.605916774847267E-02   7.701587430421782E-02
   7.798461474701300E-02   7.896554044452336E-02   7.995880466838480E-02
   8.096456261815313E-02   8.198297144555422E-02   8.301419027903935E-02
   8.405838024864923E-02   8.511570451119108E-02   8.618632827573205E-02
   8.727041882941355E-02   8.836814556359021E-02   8.947968000029756E-02
   9.060519581905277E-02   9.174486888399241E-02   9.289887727135156E-02
   9.406740129728861E-02   9.525062354605995E-02   9.644872889854926E-02
   9.766190456115545E-02   9.889034009504399E-02   1.001342274457664E-01
   1.013937609732518E-01   1.026691374821765E-01   1.039605562527148E-01
   1.052682190716770E-01   1.065923302640390E-01   1.079330967248685E-01
   1.092907279516528E-01   1.106654360770333E-01   1.120574359019515E-01
   1.134669449292119E-01   1.148941833974678E-01   1.163393743156336E-01
   1.178027434977306E-01   1.192845195981705E-01   1.207849341474840E-01
   1.223042215884968E-01   1.238426193129627E-01   1.254003676986561E-01
   1.269777101469313E-01   1.285748931207553E-01   1.301921661832169E-01
   1.318297820365227E-01   1.334879965614815E-01   1.351670688574865E-01
   1.368672612830000E-01   1.385888394965475E-01   1.403320724982276E-01
   1.420972326717433E-01   1.438845958269631E-01   1.456944412430163E-01
   1.475270517119314E-01   1.493827135828227E-01   1.512617168066326E-01
   1.531643549814380E-01   1.550909253983245E-01   1.570417290878395E-01
   1.590170708670283E-01   1.610172593870628E-01   1.630426071814688E-01
   1.650934307149595E-01   1.671700504328848E-01   1.692727908113003E-01
   1.714019804076681E-01   1.735579519121948E-01   1.757410421998140E-01
   1.779515923828250E-01   1.801899478641911E-01   1.824564583915102E-01
   1.847514781116636E-01   1.870753656261517E-01   1.894284840471267E-01
   1.918112010541294E-01   1.942238889515396E-01   1.966669247267501E-01
   1.991406901090711E-01   2.016455716293765E-01   2.041819606805002E-01
   2.067502535783916E-01   2.093508516240412E-01   2.119841611661847E-01
   2.146505936647956E-01   2.173505657553767E-01   2.200844993140601E-01
   2.228528215235269E-01   2.256559649397541E-01   2.284943675596040E-01
   2.313684728892604E-01   2.342787300135284E-01   2.372255936660050E-01
   2.402095243001310E-01   2.432309881611391E-01   2.462904573589046E-01
   2.493884099417142E-01   2.525253299709620E-01   2.557017075967844E-01
   2.589180391346480E-01   2.621748271428993E-01   2.654725805012904E-01
   2.688118144904931E-01   2.721930508726117E-01   2.756168179727103E-01
   2.790836507613639E-01   2.825940909382490E-01   2.861486870167855E-01
   2.897479944098422E-01   2.933925755165224E-01   2.970829998100389E-01
   3.008198439266958E-01   3.046036917559889E-01   3.084351345318399E-01
   3.123147709249778E-01   3.162432071364820E-01   3.202210569925029E-01
   3.242489420401738E-01   3.283274916447281E-01   3.324573430878394E-01
   3.366391416671979E-01   3.408735407973394E-01   3.451612021117433E-01
   3.495027955662128E-01   3.538989995435587E-01   3.583505009595965E-01
   3.628579953704787E-01   3.674221870813780E-01   3.720437892565350E-01
   3.767235240306924E-01   3.814621226219295E-01   3.862603254459168E-01
   3.911188822316081E-01   3.960385521383853E-01   4.010201038746811E-01
   4.060643158180890E-01   4.111719761369876E-01   4.163438829136936E-01
   4.215808442691629E-01   4.268836784892625E-01   4.322532141526274E-01
   4.376902902601296E-01   4.431957563659729E-01   4.487704727104370E-01
   4.544153103542928E-01   4.601311513149068E-01   4.659188887040575E-01
   4.717794268674878E-01   4.777136815262086E-01   4.837225799195842E-01
   4.898070609502134E-01   4.959680753306360E-01   5.022065857318843E-01
   5.085235669339000E-01   5.149200059778487E-01   5.213969023203444E-01
   5.279552679896176E-01   5.345961277436477E-01   5.413205192302818E-01
   5.481294931493710E-01   5.550241134169430E-01   5.620054573314414E-01
   5.690746157420571E-01   5.762326932191736E-01   5.834808082269602E-01
   5.908200932981333E-01   5.982516952109168E-01   6.057767751682298E-01
   6.133965089791252E-01   6.211120872425133E-01   6.289247155331956E-01
   6.368356145902371E-01   6.448460205077106E-01   6.529571849278378E-01
   6.611703752365615E-01   6.694868747615779E-01   6.779079829728569E-01
   6.864350156856903E-01   6.950693052662875E-01   7.038122008399618E-01
   7.126650685019345E-01   7.216292915307888E-01   7.307062706046111E-01
   7.398974240198490E-01   7.492041879129228E-01   7.586280164846261E-01
   7.681703822273452E-01   7.778327761551426E-01   7.876167080367273E-01
   7.975237066313610E-01   8.075553199277310E-01   8.177131153858231E-01
   8.279986801818450E-01   8.384136214562218E-01   8.489595665647164E-01
   8.596381633327088E-01   8.704510803126689E-01   8.814000070448749E-01
   8.924866543214038E-01   9.037127544534482E-01   9.150800615419943E-01
   9.265903517519007E-01   9.382454235894315E-01   9.500470981832734E-01
   9.619972195690918E-01   9.740976549776666E-01   9.863502951266485E-01
   9.987570545159898E-01   1.011319871727086E+00   1.024040709725685E+00
   1.036921556168607E+00   1.049964423714313E+00   1.063171350337393E+00
   1.076544399647003E+00   1.090085661209304E+00   1.103797250873966E+00
   1.117681311104770E+00   1.131740011314373E+00   1.145975548203288E+00
   1.160390146103115E+00   1.174986057324103E+00   1.189765562507076E+00
   1.204730970979786E+00   1.219884621117757E+00   1.235228880709652E+00
   1.250766147327250E+00   1.266498848700072E+00   1.282429443094716E+00
   1.298560419698964E+00   1.314894299010734E+00   1.331433633231897E+00
   1.348181006667076E+00   1.365139036127441E+00   1.382310371339597E+00
   1.399697695359609E+00   1.417303724992228E+00   1.435131211215404E+00
   1.453182939610129E+00   1.471461730795690E+00   1.489970440870402E+00
   1.508711961857868E+00   1.527689222158873E+00   1.546905187008948E+00
   1.566362858941695E+00   1.586065278257943E+00   1.606015523500794E+00
   1.626216711936655E+00   1.646672000042320E+00   1.667384583998171E+00
   1.688357700187593E+00   1.709594625702660E+00   1.731098678856190E+00
   1.752873219700239E+00   1.774921650551113E+00   1.797247416520994E+00
   1.819854006056234E+00   1.842744951482441E+00   1.865923829556412E+00
   1.889394262025001E+00   1.913159916191036E+00   1.937224505486329E+00
   1.961591790051919E+00   1.986265577325593E+00   2.011249722636812E+00
   2.036548129809114E+00   2.062164751770088E+00   2.088103591169033E+00
   2.114368701002377E+00   2.140964185246968E+00   2.167894199501331E+00
   2.195162951634981E+00   2.222774702445919E+00   2.250733766326383E+00
   2.279044511936987E+00   2.307711362889336E+00   2.336738798437211E+00
   2.366131354176474E+00   2.395893622753759E+00   2.426030254584080E+00
   2.456545958577479E+00   2.487445502874788E+00   2.518733715592667E+00
   2.550415485578013E+00   2.582495763171837E+00   2.614979560982788E+00
   2.647871954670360E+00   2.681178083737987E+00   2.714903152336096E+00
   2.749052430075269E+00   2.783631252849635E+00   2.818645023670600E+00
   2.854099213511091E+00   2.889999362160403E+00   2.926351079089800E+00
   2.963160044329015E+00   3.000432009353752E+00   3.038172797984377E+00
   3.076388307295898E+00   3.115084508539391E+00   3.154267448075035E+00
   3.193943248316848E+00   3.234118108689338E+00   3.274798306596176E+00
   3.315990198401045E+00   3.357700220420852E+00   3.399934889931393E+00
   3.442700806185708E+00   3.486004651445219E+00   3.529853192023846E+00
   3.574253279345272E+00   3.619211851013471E+00   3.664735931896734E+00
   3.710832635225319E+00   3.757509163702903E+00   3.804772810632030E+00
   3.852630961053689E+00   3.901091092901251E+00   3.950160778168911E+00
   3.999847684094820E+00   4.050159574359126E+00   4.101104310297040E+00
   4.152689852127198E+00   4.204924260195465E+00   4.257815696234369E+00
   4.311372424638406E+00   4.365602813755348E+00   4.420515337193827E+00
   4.476118575147352E+00   4.532421215734973E+00   4.589432056358840E+00
   4.647160005078784E+00   4.705614082004242E+00   4.764803420703660E+00
   4.824737269631627E+00   4.885424993573982E+00   4.946876075111057E+00
   5.009100116099366E+00   5.072106839171909E+00   5.135906089257348E+00
   5.200507835118322E+00   5.265922170909049E+00   5.332159317752581E+00
   5.399229625337876E+00   5.467143573536941E+00   5.535911774042367E+00
   5.605544972025388E+00   5.676054047814857E+00   5.747450018597319E+00
   5.819744040138459E+00   5.892947408526236E+00   5.967071561935892E+00
   6.042128082417202E+00   6.118128697704194E+00   6.195085283047626E+00
   6.273009863070540E+00   6.351914613647095E+00   6.431811863805103E+00
   6.512714097652453E+00   6.594633956327777E+00   6.677584239975668E+00
   6.761577909746707E+00   6.846628089822682E+00   6.932748069467264E+00
   7.019951305102479E+00   7.108251422411325E+00   7.197662218466773E+00
   7.288197663887614E+00   7.379871905021389E+00   7.472699266154785E+00
   7.566694251751849E+00   7.661871548720307E+00   7.758246028706452E+00
   7.855832750418856E+00   7.954646961981323E+00   8.054704103315460E+00
   8.156019808553165E+00   8.258609908479507E+00   8.362490433006320E+00
   8.467677613676901E+00   8.574187886202253E+00   8.682037893029145E+00
   8.791244485940565E+00   8.901824728688839E+00   9.013795899661865E+00
   9.127175494582932E+00   9.241981229244411E+00   9.358231042275916E+00
   9.475943097947246E+00   9.595135789006578E+00   9.715827739554404E+00
   9.838037807953542E+00   9.961785089775816E+00   1.008708892078578E+01
   1.021396887996194E+01   1.034244479255610E+01   1.047253673319095E+01
   1.060426502899691E+01   1.073765026278819E+01   1.087271327627895E+01
   1.100947517333984E+01   1.114795732329551E+01   1.128818136426364E+01
   1.143016920653593E+01   1.157394303600158E+01   1.171952531761399E+01
   1.186693879890084E+01   1.201620651351849E+01   1.216735178485104E+01
   1.232039822965463E+01   1.247536976174766E+01   1.263229059574730E+01
   1.279118525085312E+01   1.295207855467826E+01   1.311499564712876E+01
   1.327996198433180E+01   1.344700334261319E+01   1.361614582252500E+01
   1.378741585292384E+01   1.396084019510041E+01   1.413644594696103E+01
   1.431426054726167E+01   1.449431177989542E+01   1.467662777823369E+01
   1.486123702952211E+01   1.504816837933184E+01   1.523745103606658E+01
   1.542911457552653E+01   1.562318894552969E+01   1.581970447059120E+01
   1.601869185666169E+01   1.622018219592507E+01   1.642420697165678E+01
   1.663079806314311E+01   1.683998775066242E+01   1.705180872052901E+01
   1.726629407020035E+01   1.748347731344871E+01   1.770339238559771E+01
   1.792607364882478E+01   1.815155589753036E+01   1.837987436377457E+01
   1.861106472278226E+01   1.884516309851739E+01   1.908220606932743E+01
   1.932223067365886E+01   1.956527441584445E+01   1.981137527196336E+01
   2.006057169577508E+01   2.031290262472779E+01   2.056840748604256E+01
   2.082712620287377E+01   2.108909920054730E+01   2.135436741287702E+01
   2.162297228856078E+01   2.189495579765692E+01   2.217036043814209E+01
   2.244922924255166E+01   2.273160578470369E+01   2.301753418650738E+01
   2.330705912485726E+01   2.360022583861398E+01   2.389708013567301E+01