<UPF version="2.0.1">
  <PP_INFO>
    Generated using "atomic" code by A. Dal Corso  v.7.2
    Author: ADC
    Generation date: 31May2024
    Pseudopotential type: USPP
    Element:  W
    Functional: SLA-PW-BEEX-BEEC
    Suggested minimum cutoff for wavefunctions:  51. Ry
    Suggested minimum cutoff for charge density: 379. Ry
    The Pseudo was generated with a Scalar-Relativistic Calculation
    Local Potential by smoothing AE potential with Bessel fncs, cutoff radius:   1.5000
    Valence configuration: 
    nl pn  l   occ       Rcut    Rcut US       E pseu
    5S  1  0  2.00      1.000      1.300    -5.847010
    6S  2  0  2.00      1.000      1.300    -0.434462
    5P  2  1  6.00      1.100      1.300    -3.206440
    5D  3  2  4.00      1.500      1.800    -0.349674
    4F  4  3 14.00      1.200      1.800    -2.503857
    Generation configuration:
    5S  1  0  2.00      1.000      1.300    -5.847088
    6S  2  0  2.00      1.000      1.300    -0.434481
    5P  2  1  6.00      1.100      1.300    -3.206489
    6P  3  1  0.00      1.100      1.300    -2.400000
    5D  3  2  4.00      1.500      1.800    -0.349702
    5D  3  2  0.00      1.500      1.800     0.050000
    4F  4  3 14.00      1.200      1.800    -2.504000
    4F  4  3  0.00      1.200      1.800     1.000000
    Pseudization used: troullier-martins
    <PP_INPUTFILE>
@input
title='W',
zed=74.,
rel=1,
config='[Xe] 4f14 6s2 6p0 5d4',
iswitch=3,
dft='SLA-PW-BEEX-BEEC'
/
@inputp
lpaw=.false.,
pseudotype=3,
file_pseudopw='W.beef-spfn-rrkjus_psl.1.0.0.UPF',
author='ADC',
lloc=-1,
rcloc=1.5,
which_augfun='PSQ',
rmatch_augfun_nc=.true.,
nlcc=.true.,
new_core_ps=.true.,
rcore=1.2,
tm=.true.
/
8
5S  1  0  2.00  0.00  1.00  1.30  0.0
6S  2  0  2.00  0.00  1.00  1.30  0.0
5P  2  1  6.00  0.00  1.10  1.30  0.0
6P  3  1  0.00 -2.40  1.10  1.30  0.0
5D  3  2  4.00  0.00  1.50  1.80  0.0
5D  3  2  0.00  0.05  1.50  1.80  0.0
4F  4  3 14.00  0.00  1.20  1.80  0.0
4F  4  3  0.00  1.00  1.20  1.80  0.0
    </PP_INPUTFILE>
  </PP_INFO>
    <!-- END OF HUMAN READABLE SECTION -->
  <PP_HEADER generated="Generated using 'atomic' code by A. Dal Corso  v.7.2" author="ADC" date="31May2024" comment="" element=" W" pseudo_type="USPP" relativistic="scalar" is_ultrasoft="true" is_paw="false" is_coulomb="false" has_so="false" has_wfc="false" has_gipaw="false" paw_as_gipaw="false" core_correction="true" functional="SLA-PW-BEEX-BEEC" z_valence="28.0000000000000" total_psenergy="-740.045008787046" wfc_cutoff="50.6456282151464" rho_cutoff="379.097162785958" l_max="3" l_max_rho="6" l_local="-1" mesh_size="1273" number_of_wfc="5" number_of_proj="8"/>
  <PP_MESH mesh="1273" dx="1.250000000000000E-002" xmin="-7.00000000000000" rmax="100.000000000000" zmesh="74.0000000000000">
    <PP_R>
   1.232272926425022E-05   1.247773011714895E-05   1.263468064076462E-05
   1.279360535893586E-05   1.295452910397324E-05   1.311747702053931E-05
   1.328247456957755E-05   1.344954753229069E-05   1.361872201416906E-05
   1.379002444906966E-05   1.396348160334645E-05   1.413912058003268E-05
   1.431696882307581E-05   1.449705412162563E-05   1.467940461437646E-05
   1.486404879396376E-05   1.505101551141626E-05   1.524033398066395E-05
   1.543203378310280E-05   1.562614487221700E-05   1.582269757825912E-05
   1.602172261298936E-05   1.622325107447434E-05   1.642731445194614E-05
   1.663394463072272E-05   1.684317389718986E-05   1.705503494384614E-05
   1.726956087441114E-05   1.748678520899795E-05   1.770674188935081E-05
   1.792946528414853E-05   1.815499019437469E-05   1.838335185875532E-05
   1.861458595926510E-05   1.884872862670269E-05   1.908581644633624E-05
   1.932588646361993E-05   1.956897618998237E-05   1.981512360868788E-05
   2.006436718077144E-05   2.031674585104827E-05   2.057229905419907E-05
   2.083106672093176E-05   2.109308928422071E-05   2.135840768562456E-05
   2.162706338168330E-05   2.189909835039604E-05   2.217455509778008E-05
   2.245347666451262E-05   2.273590663265596E-05   2.302188913246722E-05
   2.331146884929381E-05   2.360469103055567E-05   2.390160149281514E-05
   2.420224662893608E-05   2.450667341533264E-05   2.481492941930956E-05
   2.512706280649461E-05   2.544312234836456E-05   2.576315742986590E-05
   2.608721805713121E-05   2.641535486529280E-05   2.674761912639455E-05
   2.708406275740323E-05   2.742473832832073E-05   2.776969907039809E-05
   2.811899888445310E-05   2.847269234929235E-05   2.883083473023930E-05
   2.919348198776966E-05   2.956069078625521E-05   2.993251850281780E-05
   3.030902323629464E-05   3.069026381631631E-05   3.107629981249913E-05
   3.146719154375289E-05   3.186300008770585E-05   3.226378729024829E-05
   3.266961577519599E-05   3.308054895407545E-05   3.349665103603187E-05
   3.391798703786214E-05   3.434462279417376E-05   3.477662496767162E-05
   3.521406105957430E-05   3.565699942016110E-05   3.610550925945203E-05
   3.655966065802198E-05   3.701952457795092E-05   3.748517287391201E-05
   3.795667830439882E-05   3.843411454309416E-05   3.891755619038166E-05
   3.940707878500227E-05   3.990275881585738E-05   4.040467373396027E-05
   4.091290196453804E-05   4.142752291928571E-05   4.194861700877444E-05
   4.247626565501595E-05   4.301055130418469E-05   4.355155743950036E-05
   4.409936859427228E-05   4.465407036510786E-05   4.521574942528746E-05
   4.578449353830692E-05   4.636039157159101E-05   4.694353351037911E-05
   4.753401047178552E-05   4.813191471903689E-05   4.873733967588825E-05
   4.935037994122086E-05   4.997113130382340E-05   5.059969075735919E-05
   5.123615651552173E-05   5.188062802738059E-05   5.253320599292068E-05
   5.319399237877680E-05   5.386309043416609E-05   5.454060470702106E-05
   5.522664106032522E-05   5.592130668865455E-05   5.662471013492675E-05
   5.733696130736136E-05   5.805817149665324E-05   5.878845339336175E-05
   5.952792110551900E-05   6.027669017645948E-05   6.103487760287388E-05
   6.180260185309018E-05   6.257998288558440E-05   6.336714216772447E-05
   6.416420269474970E-05   6.497128900898905E-05   6.578852721932113E-05
   6.661604502087907E-05   6.745397171500293E-05   6.830243822944344E-05
   6.916157713881967E-05   7.003152268533412E-05   7.091241079974844E-05
   7.180437912262264E-05   7.270756702582189E-05   7.362211563429364E-05
   7.454816784811853E-05   7.548586836483918E-05   7.643536370206903E-05
   7.739680222038629E-05   7.837033414651549E-05   7.935611159680071E-05
   8.035428860097425E-05   8.136502112622377E-05   8.238846710156267E-05
   8.342478644250685E-05   8.447414107606164E-05   8.553669496602360E-05
   8.661261413859977E-05   8.770206670834983E-05   8.880522290445431E-05
   8.992225509731316E-05   9.105333782547928E-05   9.219864782293009E-05
   9.335836404668286E-05   9.453266770475699E-05   9.572174228448808E-05
   9.692577358119864E-05   9.814494972722826E-05   9.937946122133022E-05
   1.006295009584371E-04   1.018952642598009E-04   1.031769489035130E-04
   1.044747551554064E-04   1.057888858003483E-04   1.071195461739257E-04
   1.084669441945291E-04   1.098312903958407E-04   1.112127979597301E-04
   1.126116827495650E-04   1.140281633439397E-04   1.154624610708289E-04
   1.169148000421707E-04   1.183854071888842E-04   1.198745122963278E-04
   1.213823480402044E-04   1.229091500229164E-04   1.244551568103803E-04
   1.260206099693017E-04   1.276057541049218E-04   1.292108368992367E-04
   1.308361091496984E-04   1.324818248084031E-04   1.341482410217704E-04
   1.358356181707241E-04   1.375442199113767E-04   1.392743132162262E-04
   1.410261684158717E-04   1.428000592412521E-04   1.445962628664179E-04
   1.464150599518400E-04   1.482567346882632E-04   1.501215748411122E-04
   1.520098717954549E-04   1.539219206015321E-04   1.558580200208599E-04
   1.578184725729114E-04   1.598035845823867E-04   1.618136662270760E-04
   1.638490315863257E-04   1.659099986901142E-04   1.679968895687444E-04
   1.701100303031621E-04   1.722497510759063E-04   1.744163862227010E-04
   1.766102742846958E-04   1.788317580613639E-04   1.810811846640652E-04
   1.833589055702829E-04   1.856652766785425E-04   1.880006583640220E-04
   1.903654155348611E-04   1.927599176891791E-04   1.951845389728092E-04
   1.976396582377598E-04   2.001256591014110E-04   2.026429300064554E-04
   2.051918642815939E-04   2.077728602029923E-04   2.103863210565147E-04
   2.130326552007365E-04   2.157122761307515E-04   2.184256025427821E-04
   2.211730583996004E-04   2.239550729967737E-04   2.267720810297429E-04
   2.296245226617441E-04   2.325128435925863E-04   2.354374951282907E-04
   2.383989342516103E-04   2.413976236934331E-04   2.444340320050851E-04
   2.475086336315430E-04   2.506219089855660E-04   2.537743445227623E-04
   2.569664328175980E-04   2.601986726403639E-04   2.634715690351080E-04
   2.667856333985511E-04   2.701413835599923E-04   2.735393438622215E-04
   2.769800452434494E-04   2.804640253202668E-04   2.839918284716491E-04
   2.875640059240159E-04   2.911811158373618E-04   2.948437233924699E-04
   2.985524008792222E-04   3.023077277860216E-04   3.061102908903374E-04
   3.099606843503909E-04   3.138595097979943E-04   3.178073764325555E-04
   3.218049011162687E-04   3.258527084704983E-04   3.299514309733789E-04
   3.341017090586405E-04   3.383041912156777E-04   3.425595340908776E-04
   3.468684025902221E-04   3.512314699831804E-04   3.556494180079096E-04
   3.601229369777768E-04   3.646527258892228E-04   3.692394925309807E-04
   3.738839535946700E-04   3.785868347867814E-04   3.833488709420689E-04
   3.881708061383707E-04   3.930533938128713E-04   3.979973968798282E-04
   4.030035878497798E-04   4.080727489502500E-04   4.132056722479743E-04
   4.184031597726607E-04   4.236660236423093E-04   4.289950861901075E-04
   4.343911800929199E-04   4.398551485013977E-04   4.453878451717212E-04
   4.509901345990011E-04   4.566628921523589E-04   4.624070042117031E-04
   4.682233683062301E-04   4.741128932546627E-04   4.800764993072563E-04
   4.861151182895901E-04   4.922296937481653E-04   4.984211810978381E-04
   5.046905477711030E-04   5.110387733692579E-04   5.174668498154684E-04
   5.239757815097568E-04   5.305665854859435E-04   5.372402915705583E-04
   5.439979425437547E-04   5.508405943022463E-04   5.577693160242912E-04
   5.647851903367556E-04   5.718893134842746E-04   5.790827955005431E-04
   5.863667603817618E-04   5.937423462622624E-04   6.012107055923449E-04
   6.087730053183489E-04   6.164304270649919E-04   6.241841673200017E-04
   6.320354376210673E-04   6.399854647451477E-04   6.480354909001551E-04
   6.561867739190537E-04   6.644405874563998E-04   6.727982211873506E-04
   6.812609810091807E-04   6.898301892453299E-04   6.985071848520188E-04
   7.072933236274650E-04   7.161899784237275E-04   7.251985393612180E-04
   7.343204140459120E-04   7.435570277892869E-04   7.529098238310328E-04
   7.623802635645591E-04   7.719698267653418E-04   7.816800118221417E-04
   7.915123359711288E-04   8.014683355329561E-04   8.115495661528105E-04
   8.217576030434861E-04   8.320940412315167E-04   8.425604958063977E-04
   8.531586021729514E-04   8.638900163068595E-04   8.747564150134129E-04
   8.857594961895184E-04   8.969009790889946E-04   9.081826045912132E-04
   9.196061354731111E-04   9.311733566846295E-04   9.428860756276171E-04
   9.547461224382377E-04   9.667553502729359E-04   9.789156355979932E-04
   9.912288784827315E-04   1.003697002896404E-03   1.016321957008816E-03
   1.029105713494734E-03   1.042050269842118E-03   1.055157648664232E-03
   1.068429898015685E-03   1.081869091712440E-03   1.095477329655855E-03
   1.109256738160795E-03   1.123209470287872E-03   1.137337706179870E-03
   1.151643653402390E-03   1.166129547288791E-03   1.180797651289465E-03
   1.195650257325504E-03   1.210689686146820E-03   1.225918287694764E-03
   1.241338441469310E-03   1.256952556900859E-03   1.272763073726712E-03
   1.288772462372293E-03   1.304983224337146E-03   1.321397892585812E-03
   1.338019031943599E-03   1.354849239497348E-03   1.371891145001231E-03
   1.389147411287654E-03   1.406620734683334E-03   1.424313845430600E-03
   1.442229508114003E-03   1.460370522092288E-03   1.478739721935796E-03
   1.497339977869377E-03   1.516174196220862E-03   1.535245319875186E-03
   1.554556328734222E-03   1.574110240182391E-03   1.593910109558142E-03
   1.613959030631347E-03   1.634260136086712E-03   1.654816598013269E-03
   1.675631628400017E-03   1.696708479637801E-03   1.718050445027509E-03
   1.739660859294652E-03   1.761543099110428E-03   1.783700583619327E-03
   1.806136774973385E-03   1.828855178873145E-03   1.851859345115439E-03
   1.875152868148044E-03   1.898739387631326E-03   1.922622589006941E-03
   1.946806204073693E-03   1.971294011570641E-03   1.996089837767525E-03
   2.021197557062636E-03   2.046621092588197E-03   2.072364416823358E-03
   2.098431552214906E-03   2.124826571805779E-03   2.151553599871491E-03
   2.178616812564551E-03   2.206020438567006E-03   2.233768759751170E-03
   2.261866111848683E-03   2.290316885127975E-03   2.319125525080254E-03
   2.348296533114124E-03   2.377834467258940E-03   2.407743942877007E-03
   2.438029633384741E-03   2.468696270982901E-03   2.499748647396004E-03
   2.531191614621042E-03   2.563030085685612E-03   2.595269035415597E-03
   2.627913501212481E-03   2.660968583840460E-03   2.694439448223449E-03
   2.728331324252101E-03   2.762649507601001E-03   2.797399360556117E-03
   2.832586312852674E-03   2.868215862523556E-03   2.904293576758387E-03
   2.940825092773418E-03   2.977816118692350E-03   3.015272434438242E-03
   3.053199892636634E-03   3.091604419530034E-03   3.130492015903904E-03
   3.169868758024293E-03   3.209740798587273E-03   3.250114367680300E-03
   3.290995773755686E-03   3.332391404616305E-03   3.374307728413697E-03
   3.416751294658737E-03   3.459728735245002E-03   3.503246765485022E-03
   3.547312185159559E-03   3.591931879580090E-03   3.637112820664647E-03
   3.682862068027199E-03   3.729186770080719E-03   3.776094165154154E-03
   3.823591582623418E-03   3.871686444056624E-03   3.920386264373722E-03
   3.969698653020715E-03   4.019631315158658E-03   4.070192052867597E-03
   4.121388766365666E-03   4.173229455243513E-03   4.225722219714242E-03
   4.278875261879099E-03   4.332696887009064E-03   4.387195504842564E-03
   4.442379630899516E-03   4.498257887811888E-03   4.554839006671006E-03
   4.612131828391808E-03   4.670145305094251E-03   4.728888501502102E-03
   4.788370596359308E-03   4.848600883864213E-03   4.909588775121775E-03
   4.971343799614087E-03   5.033875606689366E-03   5.097193967069690E-03
   5.161308774377690E-03   5.226230046682451E-03   5.291967928064853E-03
   5.358532690202608E-03   5.425934733975226E-03   5.494184591089179E-03
   5.563292925723494E-03   5.633270536196062E-03   5.704128356650887E-03
   5.775877458766579E-03   5.848529053486316E-03   5.922094492769587E-03
   5.996585271365947E-03   6.072013028611105E-03   6.148389550245590E-03
   6.225726770256297E-03   6.304036772741196E-03   6.383331793797498E-03
   6.463624223433571E-03   6.544926607504900E-03   6.627251649674410E-03
   6.710612213397429E-03   6.795021323931637E-03   6.880492170372289E-03
   6.967038107713031E-03   7.054672658932651E-03   7.143409517108074E-03
   7.233262547553924E-03   7.324245789989018E-03   7.416373460730089E-03
   7.509659954913130E-03   7.604119848742648E-03   7.699767901769233E-03
   7.796619059195768E-03   7.894688454212649E-03   7.993991410362368E-03
   8.094543443933861E-03   8.196360266386942E-03   8.299457786807270E-03
   8.403852114392167E-03   8.509559560967706E-03   8.616596643537481E-03
   8.724980086863409E-03   8.834726826079021E-03   8.945854009335598E-03
   9.058379000481615E-03   9.172319381775873E-03   9.287692956634763E-03
   9.404517752414084E-03   9.522812023225861E-03   9.642594252790578E-03
   9.763883157325303E-03   9.886697688468137E-03   1.001105703623944E-02
   1.013698063204030E-02   1.026448815168877E-02   1.039359951849420E-02
   1.052433490637034E-02   1.065671474298753E-02   1.079075971296456E-02
   1.092649076110071E-02   1.106392909564841E-02   1.120309619162704E-02
   1.134401379417848E-02   1.148670392196484E-02   1.163118887060889E-02
   1.177749121617781E-02   1.192563381871075E-02   1.207563982579076E-02
   1.222753267616162E-02   1.238133610339024E-02   1.253707413957504E-02
   1.269477111910103E-02   1.285445168244209E-02   1.301614078001111E-02
   1.317986367605855E-02   1.334564595262002E-02   1.351351351351352E-02
   1.368349258838696E-02   1.385560973681661E-02   1.402989185245710E-02
   1.420636616724357E-02   1.438506025564675E-02   1.456600203898151E-02
   1.474921978976962E-02   1.493474213615741E-02   1.512259806638893E-02
   1.531281693333550E-02   1.550542845908206E-02   1.570046273957140E-02
   1.589795024930664E-02   1.609792184611295E-02   1.630040877595921E-02
   1.650544267784014E-02   1.671305558872007E-02   1.692327994853872E-02
   1.713614860528000E-02   1.735169482010462E-02   1.756995227254718E-02
   1.779095506577868E-02   1.801473773193518E-02   1.824133523751356E-02
   1.847078298883510E-02   1.870311683757773E-02   1.893837308637802E-02
   1.917658849450348E-02   1.941780028359628E-02   1.966204614348922E-02
   1.990936423809481E-02   2.015979321136853E-02   2.041337219334693E-02
   2.067014080626188E-02   2.093013917073154E-02   2.119340791202932E-02
   2.145998816643168E-02   2.172992158764572E-02   2.200325035331771E-02
   2.228001717162336E-02   2.256026528794113E-02   2.284403849160935E-02
   2.313138112276845E-02   2.342233807928914E-02   2.371695482378783E-02
   2.401527739073026E-02   2.431735239362445E-02   2.462322703230418E-02
   2.493294910030406E-02   2.524656699232734E-02   2.556412971180771E-02
   2.588568687856617E-02   2.621128873656425E-02   2.654098616175470E-02
   2.687483067003098E-02   2.721287442527672E-02   2.755517024751643E-02
   2.790177162116875E-02   2.825273270340347E-02   2.860810833260373E-02
   2.896795403693459E-02   2.933232604301951E-02   2.970128128472571E-02
   3.007487741206039E-02   3.045317280017851E-02   3.083622655850412E-02
   3.122409853996629E-02   3.161684935035124E-02   3.201454035777218E-02
   3.241723370225810E-02   3.282499230546337E-02   3.323787988049933E-02
   3.365596094188962E-02   3.407930081565066E-02   3.450796564949903E-02
   3.494202242318713E-02   3.538153895896895E-02   3.582658393219740E-02
   3.627722688205502E-02   3.673353822241954E-02   3.719558925286629E-02
   3.766345216980881E-02   3.813720007777975E-02   3.861690700085359E-02
   3.910264789421300E-02   3.959449865586084E-02   4.009253613847930E-02
   4.059683816143831E-02   4.110748352295494E-02   4.162455201240585E-02
   4.214812442279451E-02   4.267828256337525E-02   4.321510927243618E-02
   4.375868843024273E-02   4.430910497214426E-02   4.486644490184526E-02
   4.543079530484365E-02   4.600224436203812E-02   4.658088136350644E-02
   4.716679672245733E-02   4.776008198935772E-02   4.836082986623758E-02
   4.896913422117492E-02   4.958509010296279E-02   5.020879375596089E-02
   5.084034263513394E-02   5.147983542127922E-02   5.212737203644562E-02
   5.278305365954668E-02   5.344698274216999E-02   5.411926302458549E-02
   5.479999955195509E-02   5.548929869074615E-02   5.618726814535149E-02
   5.689401697491842E-02   5.760965561038945E-02   5.833429587175738E-02
   5.906805098553730E-02   5.981103560245860E-02   6.056336581537929E-02
   6.132515917742574E-02   6.209653472036069E-02   6.287761297318206E-02
   6.366851598095599E-02   6.446936732388656E-02   6.528029213662542E-02
   6.610141712782443E-02   6.693287059993402E-02   6.777478246925084E-02
   6.862728428621734E-02   6.949050925597686E-02   7.036459225918718E-02
   7.124966987309586E-02   7.214588039288079E-02   7.305336385325904E-02
   7.397226205036760E-02   7.490271856391927E-02   7.584487877963730E-02
   7.679888991197224E-02   7.776490102710451E-02   7.874306306623616E-02
   7.973352886917594E-02   8.073645319822063E-02   8.175199276233715E-02
   8.278030624164850E-02   8.382155431222794E-02   8.487589967120496E-02
   8.594350706218697E-02   8.702454330100085E-02   8.811917730175831E-02
   8.922758010324905E-02   9.034992489566585E-02   9.148638704766594E-02
   9.263714413377273E-02   9.380237596212214E-02   9.498226460255806E-02
   9.617699441508107E-02   9.738675207865502E-02   9.861172662037615E-02
   9.985210944500883E-02   1.011080943648930E-01   1.023798776302277E-01
   1.036676579597356E-01   1.049716365717132E-01   1.062920172154716E-01
   1.076290062031727E-01   1.089828124420659E-01   1.103536474671305E-01
   1.117417254741280E-01   1.131472633530712E-01   1.145704807221132E-01
   1.160115999618635E-01   1.174708462501352E-01   1.189484475971299E-01
   1.204446348810641E-01   1.219596418842450E-01   1.234937053295990E-01
   1.250470649176608E-01   1.266199633640261E-01   1.282126464372774E-01
   1.298253629973853E-01   1.314583650345931E-01   1.331119077087917E-01
   1.347862493893882E-01   1.364816516956764E-01   1.381983795377163E-01
   1.399367011577256E-01   1.416968881719943E-01   1.434792156133245E-01
   1.452839619740049E-01   1.471114092493263E-01   1.489618429816433E-01
   1.508355523049915E-01   1.527328299902647E-01   1.546539724909612E-01
   1.565992799895054E-01   1.585690564441515E-01   1.605636096364784E-01
   1.625832512194803E-01   1.646282967662632E-01   1.666990658193549E-01
   1.687958819406326E-01   1.709190727618815E-01   1.730689700359870E-01
   1.752459096887722E-01   1.774502318714868E-01   1.796822810139566E-01
   1.819424058784013E-01   1.842309596139292E-01   1.865482998117176E-01
   1.888947885608870E-01   1.912707925050785E-01   1.936766828997424E-01
   1.961128356701476E-01   1.985796314701209E-01   2.010774557415249E-01
   2.036066987744837E-01   2.061677557683671E-01   2.087610268935409E-01
   2.113869173538943E-01   2.140458374501544E-01   2.167382026439956E-01
   2.194644336229573E-01   2.222249563661765E-01   2.250202022109480E-01
   2.278506079201222E-01   2.307166157503495E-01   2.336186735211845E-01
   2.365572346850580E-01   2.395327583981304E-01   2.425457095920358E-01
   2.455965590465279E-01   2.486857834630413E-01   2.518138655391759E-01
   2.549812940441202E-01   2.581885638950224E-01   2.614361762343219E-01
   2.647246385080541E-01   2.680544645451396E-01   2.714261746376713E-01
   2.748402956222111E-01   2.782973609621086E-01   2.817979108308570E-01
   2.853424921964949E-01   2.889316589070723E-01   2.925659717771901E-01
   2.962459986756280E-01   2.999723146140763E-01   3.037455018369814E-01
   3.075661499125235E-01   3.114348558247377E-01   3.153522240667935E-01
   3.193188667354490E-01   3.233354036266912E-01   3.274024623325810E-01
   3.315206783393157E-01   3.356906951265250E-01   3.399131642678159E-01
   3.441887455325824E-01   3.485181069890956E-01   3.529019251088916E-01
   3.573408848724703E-01   3.618356798763261E-01   3.663870124413231E-01
   3.709955937224340E-01   3.756621438198605E-01   3.803873918915494E-01
   3.851720762671256E-01   3.900169445632573E-01   3.949227538004723E-01
   3.998902705214455E-01   4.049202709107706E-01   4.100135409162424E-01
   4.151708763716613E-01   4.203930831211848E-01   4.256809771452426E-01
   4.310353846880340E-01   4.364571423866310E-01   4.419470974017051E-01
   4.475061075498963E-01   4.531350414378507E-01   4.588347785979401E-01
   4.646062096256919E-01   4.704502363189466E-01   4.763677718187643E-01
   4.823597407521067E-01   4.884270793763101E-01   4.945707357253785E-01
   5.007916697581162E-01   5.070908535081219E-01   5.134692712356728E-01
   5.199279195815155E-01   5.264678077225944E-01   5.330899575297372E-01
   5.397954037273237E-01   5.465851940549651E-01   5.534603894312138E-01
   5.604220641193347E-01   5.674713058951623E-01   5.746092162170650E-01
   5.818369103980533E-01   5.891555177800477E-01   5.965661819103413E-01
   6.040700607202819E-01   6.116683267061997E-01   6.193621671126148E-01
   6.271527841177432E-01   6.350413950213419E-01   6.430292324349149E-01
   6.511175444743086E-01   6.593075949547357E-01   6.676006635882462E-01
   6.759980461836861E-01   6.845010548491711E-01   6.931110181971044E-01
   7.018292815517766E-01   7.106572071595739E-01   7.195961744018330E-01
   7.286475800103726E-01   7.378128382857336E-01   7.470933813181680E-01
   7.564906592114075E-01   7.660061403092409E-01   7.756413114249492E-01
   7.853976780736222E-01   7.952767647073974E-01   8.052801149536620E-01
   8.154092918562432E-01   8.256658781196402E-01   8.360514763563235E-01
   8.465677093371468E-01   8.572162202449101E-01   8.679986729311067E-01
   8.789167521759056E-01   8.899721639514021E-01   9.011666356881786E-01
   9.125019165452183E-01   9.239797776832183E-01   9.356020125413330E-01
   9.473704371174044E-01   9.592868902517153E-01   9.713532339143118E-01
   9.835713534959415E-01   9.959431581026466E-01   1.008470580854067E+00
   1.021155579185496E+00   1.034000135153728E+00   1.047006255746769E+00
   1.060175973197421E+00   1.073511345300830E+00   1.087014455736018E+00
   1.100687414391461E+00   1.114532357694771E+00   1.128551448946504E+00
   1.142746878658190E+00   1.157120864894603E+00   1.171675653620337E+00
   1.186413519050741E+00   1.201336764007275E+00   1.216447720277323E+00
   1.231748748978547E+00   1.247242240927809E+00   1.262930617014752E+00
   1.278816328580056E+00   1.294901857798472E+00   1.311189718066668E+00
   1.327682454395947E+00   1.344382643809917E+00   1.361292895747150E+00
   1.378415852468916E+00   1.395754189472039E+00   1.413310615906949E+00
   1.431087875000999E+00   1.449088744487089E+00   1.467316037037699E+00
   1.485772600704373E+00   1.504461319362735E+00   1.523385113163098E+00
   1.542546938986744E+00   1.561949790907943E+00   1.581596700661783E+00
   1.601490738117883E+00   1.621635011760074E+00   1.642032669172094E+00
   1.662686897529414E+00   1.683600924097236E+00   1.704778016734759E+00
   1.726221484405796E+00   1.747934677695797E+00   1.769920989335388E+00
   1.792183854730495E+00   1.814726752499129E+00   1.837553205014932E+00
   1.860666778957550E+00   1.884071085869937E+00   1.907769782722662E+00
   1.931766572485325E+00   1.956065204705149E+00   1.980669476092854E+00
   2.005583231115902E+00   2.030810362599202E+00   2.056354812333373E+00
   2.082220571690659E+00   2.108411682248582E+00   2.134932236421454E+00
   2.161786378099820E+00   2.188978303297951E+00   2.216512260809484E+00
   2.244392552871299E+00   2.272623535835751E+00   2.301209620851367E+00
   2.330155274552085E+00   2.359465019755193E+00   2.389143436168006E+00
   2.419195161103471E+00   2.449624890204748E+00   2.480437378178919E+00
   2.511637439539921E+00   2.543229949360817E+00   2.575219844035543E+00
   2.607612122050224E+00   2.640411844764202E+00   2.673624137200886E+00
   2.707254188848538E+00   2.741307254471149E+00   2.775788654929505E+00
   2.810703778012576E+00   2.846058079279386E+00   2.881857082911433E+00
   2.918106382575869E+00   2.954811642299516E+00   2.991978597353881E+00
   3.029613055151312E+00   3.067720896152407E+00   3.106308074784852E+00
   3.145380620373815E+00   3.184944638084035E+00   3.225006309873779E+00
   3.265571895460767E+00   3.306647733300279E+00   3.348240241575545E+00
   3.390355919200603E+00   3.433001346835771E+00   3.476183187915878E+00
   3.519908189691446E+00   3.564183184282963E+00   3.609015089748407E+00
   3.654410911164227E+00   3.700377741719872E+00   3.746922763826138E+00
   3.794053250237426E+00   3.841776565188121E+00   3.890100165543285E+00
   3.939031601963786E+00   3.988578520086115E+00   4.038748661717035E+00
   4.089549866043241E+00   4.140990070856274E+00   4.193077313792790E+00
   4.245819733590466E+00   4.299225571359703E+00   4.353303171871304E+00
   4.408060984860379E+00   4.463507566346607E+00   4.519651579971153E+00
   4.576501798350373E+00   4.634067104446546E+00   4.692356492955875E+00
   4.751379071713902E+00   4.811144063118642E+00   4.871660805571591E+00
   4.932938754936877E+00   4.994987486018769E+00   5.057816694057732E+00
   5.121436196245350E+00   5.185855933258273E+00   5.251085970811470E+00
   5.317136501231029E+00   5.384017845046702E+00   5.451740452604534E+00
   5.520314905699737E+00   5.589751919230119E+00   5.660062342870324E+00
   5.731257162767089E+00   5.803347503255869E+00   5.876344628599036E+00
   5.950259944745931E+00   6.025105001115096E+00   6.100891492398858E+00
   6.177631260390667E+00   6.255336295835400E+00   6.334018740302932E+00
   6.413690888085304E+00   6.494365188117694E+00   6.576054245923617E+00
   6.658770825584551E+00   6.742527851734351E+00   6.827338411578770E+00
   6.913215756940327E+00   7.000173306328952E+00   7.088224647038655E+00
   7.177383537270556E+00   7.267663908282661E+00   7.359079866566614E+00
   7.451645696051881E+00   7.545375860337648E+00   7.640285004952773E+00
   7.736387959644208E+00   7.833699740694141E+00   7.932235553266343E+00
   8.032010793782003E+00   8.133041052325435E+00   8.235342115080103E+00
   8.338929966795185E+00   8.443820793283264E+00   8.550030983949380E+00
   8.657577134351904E+00   8.766476048795655E+00   8.876744742957564E+00
   8.988400446545437E+00   9.101460605990127E+00   9.215942887171561E+00
   9.331865178179106E+00   9.449245592106564E+00   9.568102469882433E+00
   9.688454383135674E+00   9.810320137097586E+00   9.933718773540180E+00
   1.005866957375145E+01   1.018519206154813E+01   1.031330600632637E+01
   1.044303142615068E+01   1.057438859088183E+01   1.070739802534408E+01
   1.084208051253216E+01   1.097845709685870E+01   1.111654908744246E+01
   1.125637806143795E+01   1.139796586740681E+01   1.154133462873179E+01
   1.168650674707354E+01   1.183350490587089E+01   1.198235207388525E+01
   1.213307150878944E+01   1.228568676080180E+01   1.244022167636596E+01
   1.259670040187687E+01   1.275514738745377E+01   1.291558739076051E+01
   1.307804548087402E+01   1.324254704220141E+01   1.340911777844630E+01
   1.357778371662515E+01   1.374857121113394E+01   1.392150694786615E+01
   1.409661794838249E+01   1.427393157413304E+01   1.445347553073261E+01