<UPF version="2.0.1">
  <PP_INFO>
    Generated using "atomic" code by A. Dal Corso  v.7.2
    Author: ADC
    Generation date: 31May2024
    Pseudopotential type: USPP
    Element: As
    Functional: PBE
    Suggested minimum cutoff for wavefunctions:  20. Ry
    Suggested minimum cutoff for charge density: 103. Ry
    The Pseudo was generated with a Scalar-Relativistic Calculation
    L component and cutoff radius for Local Potential:  2   2.0000
    Valence configuration: 
    nl pn  l   occ       Rcut    Rcut US       E pseu
    4S  1  0  2.00      1.600      1.800    -1.065287
    4P  2  1  3.00      1.600      2.000    -0.381818
    Generation configuration:
    4S  1  0  2.00      1.600      1.800    -1.065283
    4S  1  0  0.00      1.600      1.800     0.400000
    4P  2  1  3.00      1.600      2.000    -0.381817
    4P  2  1  0.00      1.600      2.000     0.400000
    4D  3  2 -2.00      2.000      2.000     0.500000
    Pseudization used: troullier-martins
    <PP_INPUTFILE>
@input
title='As',
zed=33.,
rel=1,
config='[Ar] 4s2 4p3 3d10 4d-1',
iswitch=3,
dft='PBE'
/
@inputp
lpaw=.false.,
pseudotype=3,
file_pseudopw='As.pbe-n-rrkjus_psl.1.0.0.UPF',
author='ADC',
lloc=2,
which_augfun='PSQ',
rmatch_augfun_nc=.true.,
nlcc=.true.,
new_core_ps=.true.,
rcore=1.5,
tm=.true.
/
5
4S  1  0  2.00  0.00  1.60  1.80  0.0
4S  1  0  0.00  0.40  1.60  1.80  0.0
4P  2  1  3.00  0.00  1.60  2.00  0.0
4P  2  1  0.00  0.40  1.60  2.00  0.0
4D  3  2 -2.00  0.50  2.00  2.00  0.0
    </PP_INPUTFILE>
  </PP_INFO>
    <!-- END OF HUMAN READABLE SECTION -->
  <PP_HEADER generated="Generated using 'atomic' code by A. Dal Corso  v.7.2" author="ADC" date="31May2024" comment="" element="As" pseudo_type="USPP" relativistic="scalar" is_ultrasoft="true" is_paw="false" is_coulomb="false" has_so="false" has_wfc="false" has_gipaw="false" paw_as_gipaw="false" core_correction="true" functional="PBE" z_valence="5.00000000000000" total_psenergy="-20.1100931929375" wfc_cutoff="19.9067571458288" rho_cutoff="103.137455407112" l_max="2" l_max_rho="4" l_local="2" mesh_size="1209" number_of_wfc="2" number_of_proj="4"/>
  <PP_MESH mesh="1209" dx="1.250000000000000E-002" xmin="-7.00000000000000" rmax="100.000000000000" zmesh="33.0000000000000">
    <PP_R>
   2.763278683498534E-05   2.798036450512189E-05   2.833231416413885E-05
   2.868869080488648E-05   2.904955011194000E-05   2.941494847030027E-05
   2.978494297420420E-05   3.015959143604580E-05   3.053895239540941E-05
   3.092308512821681E-05   3.131204965598900E-05   3.170590675522480E-05
   3.210471796689728E-05   3.250854560606960E-05   3.291745277163206E-05
   3.333150335616116E-05   3.375076205590313E-05   3.417529438088280E-05
   3.460516666513962E-05   3.504044607709266E-05   3.548120063003559E-05
   3.592749919276403E-05   3.637941150033639E-05   3.683700816497014E-05
   3.730036068707518E-05   3.776954146642574E-05   3.824462381347317E-05
   3.872568196080074E-05   3.921279107472267E-05   3.970602726702909E-05
   4.020546760687853E-05   4.071119013284021E-05   4.122327386508769E-05
   4.174179881774597E-05   4.226684601139390E-05   4.279849748572368E-05
   4.333683631235983E-05   4.388194660783926E-05   4.443391354675463E-05
   4.499282337506324E-05   4.555876342356280E-05   4.613182212153732E-05
   4.671208901057425E-05   4.729965475855552E-05   4.789461117382476E-05
   4.849705121953225E-05   4.910706902816081E-05   4.972475991623412E-05
   5.035022039921012E-05   5.098354820656185E-05   5.162484229704769E-05
   5.227420287417401E-05   5.293173140185211E-05   5.359753062025214E-05
   5.427170456185666E-05   5.495435856771562E-05   5.564559930390628E-05
   5.634553477820003E-05   5.705427435693871E-05   5.777192878212353E-05
   5.849861018871846E-05   5.923443212217173E-05   5.997950955615748E-05
   6.073395891054058E-05   6.149789806956770E-05   6.227144640028664E-05
   6.305472477119786E-05   6.384785557114042E-05   6.465096272841539E-05
   6.546417173015014E-05   6.628760964190561E-05   6.712140512753082E-05
   6.796568846926676E-05   6.882059158810323E-05   6.968624806439200E-05
   7.056279315871860E-05   7.145036383303736E-05   7.234909877207192E-05
   7.325913840498495E-05   7.418062492732069E-05   7.511370232322299E-05
   7.605851638793329E-05   7.701521475057146E-05   7.798394689720302E-05
   7.896486419419691E-05   7.995811991187642E-05   8.096386924846820E-05
   8.198226935435233E-05   8.301347935661723E-05   8.405766038392389E-05
   8.511497559168220E-05   8.618559018754447E-05   8.726967145721949E-05
   8.836738879061114E-05   8.947891370828626E-05   9.060441988827456E-05
   9.174408319320652E-05   9.289808169779221E-05   9.406659571664572E-05
   9.524980783246001E-05   9.644790292453536E-05   9.766106819766747E-05
   9.888949321139843E-05   1.001333699096358E-04   1.013928926506446E-04
   1.026682582374155E-04   1.039596659484162E-04   1.052673175687289E-04
   1.065914174215797E-04   1.079321724002645E-04   1.092897920004767E-04
   1.106644883530407E-04   1.120564762570585E-04   1.134659732134721E-04
   1.148931994590487E-04   1.163383780007928E-04   1.178017346507918E-04
   1.192834980614995E-04   1.207838997614633E-04   1.223031741915018E-04
   1.238415587413353E-04   1.253992937866799E-04   1.269766227268054E-04
   1.285737920225679E-04   1.301910512349194E-04   1.318286530639021E-04
   1.334868533881335E-04   1.351659113047879E-04   1.368660891700808E-04
   1.385876526402628E-04   1.403308707131287E-04   1.420960157700488E-04
   1.438833636185296E-04   1.456931935353088E-04   1.475257883099928E-04
   1.493814342892440E-04   1.512604214215217E-04   1.531630433023883E-04
   1.550895972203835E-04   1.570403842034765E-04   1.590157090661026E-04
   1.610158804567902E-04   1.630412109063885E-04   1.650920168769009E-04
   1.671686188109325E-04   1.692713411817606E-04   1.714005125440336E-04
   1.735564655851086E-04   1.757395371770347E-04   1.779500684291895E-04
   1.801884047415786E-04   1.824548958588048E-04   1.847498959247163E-04
   1.870737635377426E-04   1.894268618069261E-04   1.918095584086590E-04
   1.942222256441328E-04   1.966652404975117E-04   1.991389846948369E-04
   2.016438447636719E-04   2.041802120934990E-04   2.067484829968735E-04
   2.093490587713495E-04   2.119823457621823E-04   2.146487554258218E-04
   2.173487043942030E-04   2.200826145398452E-04   2.228509130417708E-04
   2.256540324522528E-04   2.284924107644021E-04   2.313664914806049E-04
   2.342767236818203E-04   2.372235620977507E-04   2.402074671778940E-04
   2.432289051634895E-04   2.462883481603701E-04   2.493862742127282E-04
   2.525231673778124E-04   2.556995178015617E-04   2.589158217951921E-04
   2.621725819127465E-04   2.654703070296190E-04   2.688095124220684E-04
   2.721907198477311E-04   2.756144576271459E-04   2.790812607263073E-04
   2.825916708402523E-04   2.861462364777034E-04   2.897455130467731E-04
   2.933900629417480E-04   2.970804556309645E-04   3.008172677457883E-04
   3.046010831707147E-04   3.084324931346024E-04   3.123120963030527E-04
   3.162404988719547E-04   3.202183146622017E-04   3.242461652156039E-04
   3.283246798920049E-04   3.324544959676205E-04   3.366362587346154E-04
   3.408706216019292E-04   3.451582461973751E-04   3.494998024710191E-04
   3.538959687998619E-04   3.583474320938369E-04   3.628548879031400E-04
   3.674190405269121E-04   3.720406031232863E-04   3.767202978208207E-04
   3.814588558313333E-04   3.862570175641536E-04   3.911155327418143E-04
   3.960351605171967E-04   4.010166695921493E-04   4.060608383376009E-04
   4.111684549151798E-04   4.163403174003680E-04   4.215772339072010E-04
   4.268800227145370E-04   4.322495123939168E-04   4.376865419390267E-04
   4.431919608967946E-04   4.487666295001337E-04   4.544114188023547E-04
   4.601272108132711E-04   4.659148986370131E-04   4.717753866115785E-04
   4.777095904501364E-04   4.837184373841094E-04   4.898028663080568E-04
   4.959638279263766E-04   5.022022849018562E-04   5.085192120060901E-04
   5.149155962717899E-04   5.213924371470116E-04   5.279507466513186E-04
   5.345915495339141E-04   5.413158834337591E-04   5.481247990417061E-04
   5.550193602646721E-04   5.620006443918753E-04   5.690697422631640E-04
   5.762277584394623E-04   5.834758113753615E-04   5.908150335938786E-04
   5.982465718634176E-04   6.057715873769524E-04   6.133912559334664E-04
   6.211067681216745E-04   6.289193295060528E-04   6.368301608152130E-04
   6.448404981326417E-04   6.529515930898416E-04   6.611647130619022E-04
   6.694811413655285E-04   6.779021774595637E-04   6.864291371480295E-04
   6.950633527857252E-04   7.038061734864114E-04   7.126589653336093E-04
   7.216231115940569E-04   7.307000129338447E-04   7.398910876372737E-04
   7.491977718284666E-04   7.586215196957620E-04   7.681638037189377E-04
   7.778261148992858E-04   7.876099629925863E-04   7.975168767450096E-04
   8.075484041319844E-04   8.177061126000753E-04   8.279915893118961E-04
   8.384064413941084E-04   8.489522961885401E-04   8.596308015064576E-04
   8.704436258860434E-04   8.813924588531053E-04   8.924790111850694E-04
   9.037050151782943E-04   9.150722249187424E-04   9.265824165560635E-04
   9.382373885811180E-04   9.500389621069967E-04   9.619889811535743E-04
   9.740893129356384E-04   9.863418481546493E-04   9.987485012941627E-04
   1.011311210918972E-03   1.024031939978017E-03   1.036912676111092E-03
   1.049955431959425E-03   1.063162245480153E-03   1.076535180264756E-03
   1.090076325861505E-03   1.103787798101946E-03   1.117671739431516E-03
   1.131730319244292E-03   1.145965734221972E-03   1.160380208677111E-03
   1.174975994900667E-03   1.189755373513934E-03   1.204720653824888E-03
   1.219874174189026E-03   1.235218302374734E-03   1.250755435933259E-03
   1.266488002573331E-03   1.282418460540494E-03   1.298549299001218E-03
   1.314883038431830E-03   1.331422231012346E-03   1.348169461025258E-03
   1.365127345259328E-03   1.382298533418467E-03   1.399685708535761E-03
   1.417291587392696E-03   1.435118920943664E-03   1.453170494745802E-03
   1.471449129394242E-03   1.489957680962836E-03   1.508699041450423E-03
   1.527676139232708E-03   1.546891939519831E-03   1.566349444819679E-03
   1.586051695407043E-03   1.606001769798662E-03   1.626202785234247E-03
   1.646657898163560E-03   1.667370304739613E-03   1.688343241318074E-03
   1.709579984962951E-03   1.731083853958645E-03   1.752858208328439E-03
   1.774906450359501E-03   1.797232025134507E-03   1.819838421069939E-03
   1.842729170461151E-03   1.865907850034310E-03   1.889378081505255E-03
   1.913143532145406E-03   1.937207915354776E-03   1.961574991242199E-03
   1.986248567212860E-03   2.011232498563200E-03   2.036530689083327E-03
   2.062147091666976E-03   2.088085708929169E-03   2.114350593831626E-03
   2.140945850316048E-03   2.167875633945372E-03   2.195144152553076E-03
   2.222755666900671E-03   2.250714491343452E-03   2.279024994504618E-03
   2.307691599957890E-03   2.336718786918689E-03   2.366111090944035E-03
   2.395873104641233E-03   2.426009478385471E-03   2.456524921046463E-03
   2.487424200724207E-03   2.518712145494017E-03   2.550393644160921E-03
   2.582473647023541E-03   2.614957166647592E-03   2.647849278649104E-03
   2.681155122487494E-03   2.714879902268628E-03   2.749028887557955E-03
   2.783607414203907E-03   2.818620885171622E-03   2.854074771387172E-03
   2.889974612592414E-03   2.926326018210571E-03   2.963134668222730E-03
   3.000406314055344E-03   3.038146779478901E-03   3.076361961517912E-03
   3.115057831372315E-03   3.154240435350506E-03   3.193915895814073E-03
   3.234090412134431E-03   3.274770261661494E-03   3.315961800704513E-03
   3.357671465525270E-03   3.399905773343751E-03   3.442671323356478E-03
   3.485974797767649E-03   3.529822962833241E-03   3.574222669918258E-03
   3.619180856567263E-03   3.664704547588385E-03   3.710800856150968E-03
   3.757476984897007E-03   3.804740227066583E-03   3.852597967637444E-03
   3.901057684478916E-03   3.950126949520355E-03   3.999813429934249E-03
   4.050124889334256E-03   4.101069188988265E-03   4.152654289046742E-03
   4.204888249786524E-03   4.257779232870247E-03   4.311335502621624E-03
   4.365565427316767E-03   4.420477480491740E-03   4.476080242266572E-03
   4.532382400685912E-03   4.589392753076563E-03   4.647120207422075E-03
   4.705573783754637E-03   4.764762615564475E-03   4.824695951226979E-03
   4.885383155447781E-03   4.946833710726013E-03   5.009057218835956E-03
   5.072063402327350E-03   5.135862106044550E-03   5.200463298664811E-03
   5.265877074255914E-03   5.332113653853381E-03   5.399183387057530E-03
   5.467096753650632E-03   5.535864365234385E-03   5.605496966888010E-03
   5.676005438847185E-03   5.747400798204101E-03   5.819694200628914E-03
   5.892896942112836E-03   5.967020460733154E-03   6.042076338440462E-03
   6.118076302868348E-03   6.195032229165881E-03   6.272956141853111E-03
   6.351860216699936E-03   6.431756782628580E-03   6.512658323640020E-03
   6.594577480764635E-03   6.677527054037391E-03   6.761520004497875E-03
   6.846569456215483E-03   6.932688698340076E-03   7.019891187178451E-03
   7.108190548296900E-03   7.197600578650249E-03   7.288135248737644E-03
   7.379808704785479E-03   7.472635270957774E-03   7.566629451594351E-03
   7.661805933477167E-03   7.758179588125156E-03   7.855765474117928E-03
   7.954578839448707E-03   8.054635123906868E-03   8.155949961490421E-03
   8.258539182848870E-03   8.362418817756763E-03   8.467605097618406E-03
   8.574114458004028E-03   8.681963541217884E-03   8.791169198898649E-03
   8.901748494652513E-03   9.013718706719414E-03   9.127097330672794E-03
   9.241902082153313E-03   9.358150899636968E-03   9.475861947237997E-03
   9.595053617547070E-03   9.715744534505173E-03   9.837953556313631E-03
   9.961699778380734E-03   1.008700253630544E-02   1.021388140889862E-02
   1.034235622124224E-02   1.047244704778711E-02   1.060417421548956E-02
   1.073755830698754E-02   1.087262016381672E-02   1.100938088966701E-02
   1.114786185368007E-02   1.128808469378828E-02   1.143007132009567E-02
   1.157384391830149E-02   1.171942495316671E-02   1.186683717202422E-02
   1.201610360833312E-02   1.216724758527778E-02   1.232029271941210E-02
   1.247526292434965E-02   1.263218241450026E-02   1.279107570885350E-02
   1.295196763480990E-02   1.311488333206022E-02   1.327984825651362E-02
   1.344688818427515E-02   1.361602921567339E-02   1.378729777933860E-02
   1.396072063633230E-02   1.413632488432874E-02   1.431413796184893E-02
   1.449418765254801E-02   1.467650208955644E-02   1.486110975987595E-02
   1.504803950883060E-02   1.523732054457397E-02   1.542898244265301E-02
   1.562305515062922E-02   1.581956899275807E-02   1.601855467472720E-02
   1.622004328845425E-02   1.642406631694507E-02   1.663065563921293E-02
   1.683984353525975E-02   1.705166269111988E-02   1.726614620396737E-02
   1.748332758728748E-02   1.770324077611321E-02   1.792592013232773E-02
   1.815140045003351E-02   1.837971696098890E-02   1.861090534011327E-02
   1.884500171106122E-02   1.908204265186698E-02   1.932206520065980E-02
   1.956510686145128E-02   1.981120560999538E-02   2.006039989972225E-02
   2.031272866774665E-02   2.056823134095196E-02   2.082694784215068E-02
   2.108891859632249E-02   2.135418453693072E-02   2.162278711231827E-02
   2.189476829218401E-02   2.217017057414067E-02   2.244903699035510E-02
   2.273141111427218E-02   2.301733706742330E-02   2.330685952632033E-02
   2.360002372943652E-02   2.389687548427506E-02   2.419746117452659E-02
   2.450182776731675E-02   2.481002282054491E-02   2.512209449031517E-02
   2.543809153846084E-02   2.575806334016359E-02   2.608205989166843E-02
   2.641013181809570E-02   2.674233038135139E-02   2.707870748813685E-02
   2.741931569805939E-02   2.776420823184479E-02   2.811343897965313E-02
   2.846706250949928E-02   2.882513407577922E-02   2.918770962790370E-02
   2.955484581904039E-02   2.992660001496611E-02   3.030303030303032E-02
   3.068419550123136E-02   3.107015516740695E-02   3.146096960854017E-02
   3.185669989018256E-02   3.225740784599575E-02   3.266315608741309E-02
   3.307400801342279E-02   3.349002782047419E-02   3.391128051250851E-02
   3.433783191111596E-02   3.476974866582039E-02   3.520709826449344E-02
   3.564994904389972E-02   3.609837020037450E-02   3.655243180063579E-02
   3.701220479273244E-02   3.747776101712985E-02   3.794917321793530E-02
   3.842651505426424E-02   3.890986111174976E-02   3.939928691419671E-02
   3.989486893538249E-02   4.039668461100616E-02   4.090481235078799E-02
   4.141933155072112E-02   4.194032260547733E-02   4.246786692096891E-02
   4.300204692706842E-02   4.354294609048864E-02   4.409064892782430E-02
   4.464524101875806E-02   4.520680901943246E-02   4.577544067599010E-02
   4.635122483828422E-02   4.693425147376163E-02   4.752461168152029E-02
   4.812239770654376E-02   4.872770295411465E-02   4.934062200440941E-02
   4.996125062727663E-02   5.058968579720132E-02   5.122602570845734E-02
   5.187036979045045E-02   5.252281872325442E-02   5.318347445334241E-02
   5.385244020951634E-02   5.452982051903665E-02   5.521572122395484E-02
   5.591024949765153E-02   5.661351386158252E-02   5.732562420223546E-02
   5.804669178829991E-02   5.877682928805317E-02   5.951615078696509E-02
   6.026477180552402E-02   6.102280931728720E-02   6.179038176715806E-02
   6.256760908989355E-02   6.335461272884414E-02   6.415151565492956E-02
   6.495844238585334E-02   6.577551900555889E-02   6.660287318393038E-02
   6.744063419674148E-02   6.828893294585484E-02   6.914790197967589E-02
   7.001767551386379E-02   7.089838945230278E-02   7.179018140833761E-02
   7.269319072627572E-02   7.360755850316028E-02   7.453342761081669E-02
   7.547094271817673E-02   7.642025031388332E-02   7.738149872917964E-02
   7.835483816108628E-02   7.934042069586976E-02   8.033840033280630E-02
   8.134893300824458E-02   8.237217661997111E-02   8.340829105188198E-02
   8.445743819896520E-02   8.551978199259702E-02   8.659548842615652E-02
   8.768472558096249E-02   8.878766365253644E-02   8.990447497719602E-02
   9.103533405898287E-02   9.218041759692924E-02   9.333990451266766E-02
   9.451397597838769E-02   9.570281544514452E-02   9.690660867152355E-02
   9.812554375266552E-02   9.935981114965682E-02   1.006096037192894E-01
   1.018751167441949E-01   1.031565479633582E-01   1.044540976030144E-01
   1.057679684079346E-01   1.070983656731052E-01   1.084454972758055E-01
   1.098095737080892E-01   1.111908081096741E-01   1.125894163012456E-01
   1.140056168181791E-01   1.154396309446867E-01   1.168916827483932E-01
   1.183619991153471E-01   1.198508097854721E-01   1.213583473884644E-01
   1.228848474801417E-01   1.244305485792489E-01   1.259956922047276E-01
   1.275805229134534E-01   1.291852883384491E-01   1.308102392275772E-01
   1.324556294827200E-01   1.341217161994526E-01   1.358087597072141E-01
   1.375170236099850E-01   1.392467748274755E-01   1.409982836368325E-01
   1.427718237148710E-01   1.445676721808365E-01   1.463861096397055E-01
   1.482274202260305E-01   1.500918916483369E-01   1.519798152340776E-01
   1.538914859751540E-01   1.558272025740087E-01   1.577872674902985E-01
   1.597719869881544E-01   1.617816711840357E-01   1.638166340951870E-01
   1.658771936887031E-01   1.679636719312129E-01   1.700763948391867E-01
   1.722156925298771E-01   1.743818992729010E-01   1.765753535424690E-01
   1.787963980702733E-01   1.810453798990402E-01   1.833226504367560E-01
   1.856285655115754E-01   1.879634854274203E-01   1.903277750202778E-01
   1.927218037152071E-01   1.951459455840625E-01   1.976005794039429E-01
   2.000860887163767E-01   2.026028618872507E-01   2.051512921674933E-01
   2.077317777545207E-01   2.103447218544557E-01   2.129905327451302E-01
   2.156696238398788E-01   2.183824137521355E-01   2.211293263608435E-01
   2.239107908766864E-01   2.267272419091540E-01   2.295791195344500E-01
   2.324668693642556E-01   2.353909426153569E-01   2.383517961801483E-01
   2.413498926980235E-01   2.443857006276629E-01   2.474596943202320E-01
   2.505723540934992E-01   2.537241663068869E-01   2.569156234374660E-01
   2.601472241569059E-01   2.634194734093942E-01   2.667328824905337E-01
   2.700879691272346E-01   2.734852575586099E-01   2.769252786178887E-01
   2.804085698153606E-01   2.839356754223617E-01   2.875071465563191E-01
   2.911235412668639E-01   2.947854246230269E-01   2.984933688015330E-01
   3.022479531762038E-01   3.060497644084866E-01   3.098993965391214E-01
   3.137974510809605E-01   3.177445371129570E-01   3.217412713753336E-01
   3.257882783659503E-01   3.298861904378832E-01   3.340356478982304E-01
   3.382372991081628E-01   3.424918005842300E-01   3.467998171009432E-01
   3.511620217946484E-01   3.555790962687034E-01   3.600517306999820E-01
   3.645806239467133E-01   3.691664836576812E-01   3.738100263827958E-01
   3.785119776850550E-01   3.832730722539162E-01   3.880940540200922E-01
   3.929756762717921E-01   3.979187017724249E-01   4.029239028797815E-01
   4.079920616667181E-01   4.131239700433565E-01   4.183204298808212E-01
   4.235822531365345E-01   4.289102619810851E-01   4.343052889266951E-01
   4.397681769573007E-01   4.452997796602712E-01   4.509009613597831E-01
   4.565725972518725E-01   4.623155735411869E-01   4.681307875794554E-01
   4.740191480057024E-01   4.799815748882250E-01   4.860189998683538E-01
   4.921323663060256E-01   4.983226294271837E-01   5.045907564730349E-01
   5.109377268511831E-01   5.173645322886624E-01   5.238721769868985E-01
   5.304616777786149E-01   5.371340642867166E-01   5.438903790851712E-01
   5.507316778619111E-01   5.576590295837895E-01   5.646735166636065E-01
   5.717762351292391E-01   5.789682947948988E-01   5.862508194345399E-01
   5.936249469574546E-01   6.010918295860707E-01   6.086526340359901E-01
   6.163085416982915E-01   6.240607488241223E-01   6.319104667116187E-01
   6.398589218951705E-01   6.479073563370713E-01   6.560570276215778E-01
   6.643092091514082E-01   6.726651903467166E-01   6.811262768465643E-01
   6.896937907129315E-01   6.983690706372906E-01   7.071534721497794E-01
   7.160483678310069E-01   7.250551475265198E-01   7.341752185639694E-01
   7.434100059730110E-01   7.527609527079651E-01   7.622295198732841E-01
   7.718171869518514E-01   7.815254520361538E-01   7.913558320623630E-01
   8.013098630473576E-01   8.113891003287313E-01   8.215951188078154E-01
   8.319295131957610E-01   8.423938982627176E-01   8.529899090901411E-01
   8.637192013262815E-01   8.745834514448798E-01   8.855843570071198E-01
   8.967236369268778E-01   9.080030317393037E-01   9.194243038727858E-01
   9.309892379243313E-01   9.426996409384144E-01   9.545573426893319E-01
   9.665641959671065E-01   9.787220768669908E-01   9.910328850826113E-01
   1.003498544202798E+00   1.016121002012150E+00   1.028902230795381E+00
   1.041844227645491E+00   1.054949014775820E+00   1.068218639836017E+00
   1.081655176231997E+00   1.095260723449908E+00   1.109037407384182E+00
   1.122987380669715E+00   1.137112823018213E+00   1.151415941558781E+00
   1.165898971182793E+00   1.180564174893090E+00   1.195413844157593E+00
   1.210450299267332E+00   1.225675889699013E+00   1.241092994482116E+00
   1.256704022570629E+00   1.272511413219455E+00   1.288517636365540E+00
   1.304725193013816E+00   1.321136615627986E+00   1.337754468526220E+00
   1.354581348281844E+00   1.371619884129054E+00   1.388872738373742E+00
   1.406342606809485E+00   1.424032219138767E+00   1.441944339399506E+00
   1.460081766396935E+00   1.478447334140922E+00   1.497043912288794E+00
   1.515874406593720E+00   1.534941759358748E+00   1.554248949896537E+00
   1.573798994994893E+00   1.593594949388136E+00   1.613639906234414E+00
   1.633936997599017E+00   1.654489394943766E+00   1.675300309622559E+00
   1.696372993383156E+00   1.717710738875267E+00   1.739316880165038E+00
   1.761194793256001E+00   1.783347896616588E+00   1.805779651714272E+00
   1.828493563556424E+00   1.851493181237981E+00   1.874782098495998E+00
   1.898363954271178E+00   1.922242433276465E+00   1.946421266572785E+00
   1.970904232152031E+00   1.995695155527387E+00   2.020797910331067E+00
   2.046216418919580E+00   2.071954652986611E+00   2.098016634183595E+00
   2.124406434748119E+00   2.151128178140210E+00   2.178186039686639E+00
   2.205584247233324E+00   2.233327081805935E+00   2.261418878278818E+00
   2.289864026052324E+00   2.318666969738663E+00   2.347832209856391E+00
   2.377364303533611E+00   2.407267865220042E+00   2.437547567408040E+00
   2.468208141362671E+00   2.499254377861001E+00   2.530691127940645E+00
   2.562523303657760E+00   2.594755878854565E+00   2.627393889936512E+00
   2.660442436659238E+00   2.693906682925404E+00   2.727791857591573E+00
   2.762103255285226E+00   2.796846237232057E+00   2.832026232093687E+00
   2.867648736815883E+00   2.903719317487484E+00   2.940243610210104E+00
   2.977227321978790E+00   3.014676231573753E+00   3.052596190463307E+00
   3.090993123718175E+00   3.129873030937298E+00   3.169241987185280E+00
   3.209106143941634E+00   3.249471730061956E+00   3.290345052751203E+00
   3.331732498549200E+00   3.373640534328556E+00   3.416075708305128E+00
   3.459044651061183E+00   3.502554076581447E+00   3.546610783302179E+00
   3.591221655173435E+00   3.636393662734711E+00   3.682133864204090E+00
   3.728449406581110E+00   3.775347526763499E+00   3.822835552677945E+00
   3.870920904425119E+00   3.919611095439060E+00   3.968913733661173E+00
   4.018836522728989E+00   4.069387263179864E+00   4.120573853669848E+00
   4.172404292207840E+00   4.224886677405312E+00   4.278029209741727E+00
   4.331840192845879E+00   4.386328034793364E+00   4.441501249420339E+00
   4.497368457653841E+00   4.553938388858818E+00   4.611219882202110E+00
   4.669221888033599E+00   4.727953469284700E+00   4.787423802884473E+00
   4.847642181193535E+00   4.908618013456010E+00   4.970360827269753E+00
   5.032880270075034E+00   5.096186110661987E+00   5.160288240697004E+00
   5.225196676268313E+00   5.290921559451039E+00   5.357473159891892E+00
   5.424861876413844E+00   5.493098238640950E+00   5.562192908643636E+00
   5.632156682604672E+00   5.703000492506075E+00   5.774735407837277E+00
   5.847372637324745E+00   5.920923530683362E+00   5.995399580389866E+00
   6.070812423478540E+00   6.147173843359547E+00   6.224495771660102E+00
   6.302790290088807E+00   6.382069632323471E+00   6.462346185922608E+00
   6.543632494261040E+00   6.625941258489823E+00   6.709285339520823E+00
   6.793677760036275E+00   6.879131706523579E+00   6.965660531335729E+00
   7.053277754777645E+00   7.141997067218746E+00   7.231832331232111E+00
   7.322797583760508E+00   7.414907038309716E+00   7.508175087169404E+00
   7.602616303661957E+00   7.698245444419608E+00   7.795077451690150E+00
   7.893127455671728E+00   7.992410776876947E+00   8.092942928526732E+00
   8.194739618974326E+00   8.297816754159713E+00   8.402190440094977E+00
   8.507876985380895E+00   8.614892903755180E+00   8.723254916672820E+00
   8.832979955918793E+00   8.944085166253712E+00   9.056587908092744E+00
   9.170505760218177E+00   9.285856522526190E+00   9.402658218808073E+00
   9.520929099566500E+00   9.640687644867214E+00   9.761952567226562E+00
   9.884742814535395E+00   1.000907757301966E+01   1.013497627023834E+01
   1.026245857811902E+01   1.039154441603165E+01   1.052225395390105E+01
   1.065460761535845E+01   1.078862608093271E+01   1.092433029128175E+01
   1.106174145046451E+01   1.120088102925421E+01   1.134177076849310E+01
   1.148443268248957E+01   1.162888906245795E+01   1.177516248000148E+01
   1.192327579063928E+01   1.207325213737745E+01   1.222511495432532E+01
   1.237888797035699E+01   1.253459521281905E+01   1.269226101128497E+01
   1.285191000135650E+01   1.301356712851316E+01   1.317725765200996E+01
   1.334300714882421E+01   1.351084151765204E+01   1.368078698295502E+01
   1.385287009905786E+01   1.402711775429756E+01   1.420355717522476E+01
   1.438221593085795E+01   1.456312193699119E+01   1.474630346055599E+01
   1.493178912403808E+01   1.511960790994976E+01   1.530978916535846E+01
   1.550236260647225E+01   1.569735832328310E+01   1.589480678426850E+01
   1.609473884115215E+01   1.629718573372476E+01   1.650217909472514E+01
   1.670975095478301E+01   1.691993374742382E+01   1.713276031413652E+01
   1.734826390950519E+01   1.756647820640504E+01   1.778743730126392E+01
   1.801117571938995E+01   1.823772842036613E+01   1.846713080351296E+01
   1.869941871341950E+01   1.893462844554429E+01   1.917279675188649E+01
   1.941396084672851E+01   1.965815841245086E+01   1.990542760541999E+01
   2.015580706195038E+01   2.040933590434150E+01   2.066605374699077E+01
   2.092600070258345E+01   2.118921738836018E+01   2.145574493246364E+01
   2.172562498036485E+01   2.199889970137034E+01   2.227561179521132E+01
   2.255580449871536E+01   2.283952159256248E+01   2.312680740812581E+01
   2.341770683439848E+01   2.371226532500775E+01   2.401052890531703E+01
   2.431254417961757E+01   2.461835833841042E+01   2.492801916578007E+01
   2.524157504686085E+01   2.555907497539708E+01   2.588056856139855E+01
   2.620610603889218E+01   2.653573827377109E+01   2.686951677174268E+01
   2.720749368637631E+01   2.754972182725252E+01   2.789625466821457E+01
   2.824714635572389E+01   2.860245171732057E+01   2.896222627019023E+01
   2.932652622983871E+01   2.969540851887589E+01   3.006893077590989E+01
   3.044715136455336E+01   3.083012938254276E+01   3.121792467097257E+01
   3.161059782364558E+01   3.200821019654076E+01   3.241082391740040E+01
   3.281850189543746E+01   3.323130783116545E+01   3.364930622635167E+01
   3.407256239409578E+01   3.450114246903515E+01   3.493511341767844E+01
   3.537454304886928E+01   3.581950002438158E+01   3.627005386964799E+01
   3.672627498462356E+01   3.718823465478566E+01   3.765600506227263E+01
   3.812965929716232E+01   3.860927136889255E+01   3.909491621782537E+01
   3.958666972695645E+01   4.008460873377208E+01   4.058881104225512E+01
   4.109935543504207E+01   4.161632168573306E+01   4.213979057135651E+01