<UPF version="2.0.1">
  <PP_INFO>
    Generated using "atomic" code by A. Dal Corso  v.7.2
    Author: ADC
    Generation date: 31May2024
    Pseudopotential type: USPP
    Element:  C
    Functional: PBE
    Suggested minimum cutoff for wavefunctions:  40. Ry
    Suggested minimum cutoff for charge density: 326. Ry
    The Pseudo was generated with a Scalar-Relativistic Calculation
    Local Potential by smoothing AE potential with Bessel fncs, cutoff radius:   1.0000
    Valence configuration: 
    nl pn  l   occ       Rcut    Rcut US       E pseu
    2S  1  0  2.00      1.000      1.200    -1.010678
    2P  2  1  2.00      0.900      1.400    -0.388489
    Generation configuration:
    2S  1  0  2.00      1.000      1.200    -1.010669
    2S  1  0  0.00      1.000      1.200     3.000000
    2P  2  1  2.00      0.900      1.400    -0.388487
    2P  2  1  0.00      0.900      1.400     0.050000
    Pseudization used: troullier-martins
    <PP_INPUTFILE>
@input
title='C',
zed=6.,
rel=1,
config='[He] 2s2 2p2',
iswitch=3,
dft='PBE'
/
@inputp
lpaw=.false.,
pseudotype=3,
file_pseudopw='C.pbe-n-rrkjus_psl.1.0.0.UPF',
author='ADC',
lloc=-1,
rcloc=1.0
which_augfun='PSQ',
rmatch_augfun_nc=.true.,
nlcc=.true.,
new_core_ps=.true.,
rcore=0.7,
tm=.true.
/
4
2S  1  0  2.00  0.00  1.00  1.20  0.0
2S  1  0  0.00  3.00  1.00  1.20  0.0
2P  2  1  2.00  0.00  0.90  1.40  0.0
2P  2  1  0.00  0.05  0.90  1.40  0.0
    </PP_INPUTFILE>
  </PP_INFO>
    <!-- END OF HUMAN READABLE SECTION -->
  <PP_HEADER generated="Generated using 'atomic' code by A. Dal Corso  v.7.2" author="ADC" date="31May2024" comment="" element=" C" pseudo_type="USPP" relativistic="scalar" is_ultrasoft="true" is_paw="false" is_coulomb="false" has_so="false" has_wfc="false" has_gipaw="false" paw_as_gipaw="false" core_correction="true" functional="PBE" z_valence="4.00000000000000" total_psenergy="-11.7501582155810" wfc_cutoff="40.1867664813511" rho_cutoff="326.260597365730" l_max="1" l_max_rho="2" l_local="-1" mesh_size="1073" number_of_wfc="2" number_of_proj="4"/>
  <PP_MESH mesh="1073" dx="1.250000000000000E-002" xmin="-7.00000000000000" rmax="100.000000000000" zmesh="6.00000000000000">
    <PP_R>
   1.519803275924194E-04   1.538920047781704E-04   1.558277279027637E-04
   1.577877994268757E-04   1.597725256156700E-04   1.617822165866515E-04
   1.638171863581231E-04   1.658777528982519E-04   1.679642381747518E-04
   1.700769682051924E-04   1.722162731079395E-04   1.743824871537364E-04
   1.765759488179350E-04   1.787970008333828E-04   1.810459902439763E-04
   1.833232684588864E-04   1.856291913074672E-04   1.879641190948554E-04
   1.903284166582679E-04   1.927224534240096E-04   1.951466034651957E-04
   1.976012455602021E-04   2.000867632518501E-04   2.026035449073358E-04
   2.051519837789135E-04   2.077324780653416E-04   2.103454309741024E-04
   2.129912507844041E-04   2.156703509109747E-04   2.183831499686600E-04
   2.211300718378319E-04   2.239115457306211E-04   2.267280062579823E-04
   2.295798934976029E-04   2.324676530626665E-04   2.353917361714803E-04
   2.383525997179791E-04   2.413507063431159E-04   2.443865245071505E-04
   2.474605285628478E-04   2.505731988295954E-04   2.537250216684553E-04
   2.569164895581584E-04   2.601481011720554E-04   2.634203614560362E-04
   2.667337817074274E-04   2.700888796548844E-04   2.734861795392877E-04
   2.769262121956557E-04   2.804095151360902E-04   2.839366326337623E-04
   2.875081158079570E-04   2.911245227101866E-04   2.947864184113868E-04
   2.984943750902116E-04   3.022489721224359E-04   3.060507961714845E-04
   3.099004412801002E-04   3.137985089631629E-04   3.177456083016794E-04
   3.217423560379515E-04   3.257893766719445E-04   3.298873025588661E-04
   3.340367740079732E-04   3.382384393826223E-04   3.424929552015765E-04
   3.468009862415882E-04   3.511632056412723E-04   3.555802950062847E-04
   3.600529445158258E-04   3.645818530304808E-04   3.691677282014195E-04
   3.738112865809672E-04   3.785132537345678E-04   3.832743643541560E-04
   3.880953623729523E-04   3.929770010817055E-04   3.979200432463956E-04
   4.029252612274172E-04   4.079934371002639E-04   4.131253627777264E-04
   4.183218401336331E-04   4.235836811281430E-04   4.289117079346167E-04
   4.343067530680831E-04   4.397696595153202E-04   4.453012808665751E-04
   4.509024814489378E-04   4.565741364613947E-04   4.623171321115815E-04
   4.681323657542521E-04   4.740207460314946E-04   4.799831930147072E-04
   4.860206383483613E-04   4.921340253955744E-04   4.983243093855100E-04
   5.045924575626359E-04   5.109394493378571E-04   5.173662764415514E-04
   5.238739430785301E-04   5.304634660849445E-04   5.371358750871710E-04
   5.438922126626914E-04   5.507335345029970E-04   5.576609095785454E-04
   5.646754203057852E-04   5.717781627162891E-04   5.789702466280090E-04
   5.862527958186881E-04   5.936269482014549E-04   6.010938560026218E-04
   6.086546859417239E-04   6.163106194138220E-04   6.240628526740967E-04
   6.319125970247679E-04   6.398610790043606E-04   6.479095405793550E-04
   6.560592393382472E-04   6.643114486880484E-04   6.726674580532598E-04
   6.811285730773444E-04   6.896961158267394E-04   6.983714249974299E-04
   7.071558561241234E-04   7.160507817920566E-04   7.250575918514615E-04
   7.341776936347343E-04   7.434125121763336E-04   7.527634904354445E-04
   7.622320895214455E-04   7.718197889222076E-04   7.815280867352685E-04
   7.913584999019130E-04   8.013125644441983E-04   8.113918357049605E-04
   8.215978885908419E-04   8.319323178183695E-04   8.423967381631357E-04
   8.529927847121093E-04   8.637221131191208E-04   8.745863998635641E-04
   8.855873425123459E-04   8.967266599851368E-04   9.080060928229549E-04
   9.194274034601286E-04   9.309923764996833E-04   9.427028189921846E-04
   9.545605607180975E-04   9.665674544736911E-04   9.787253763605421E-04
   9.910362260786823E-04   1.003501927223426E-03   1.016124427585940E-03
   1.028905699457585E-03   1.041847739938093E-03   1.054952571247625E-03
   1.068222241042730E-03   1.081658822736315E-03   1.095264415821603E-03
   1.109041146200196E-03   1.122991166514245E-03   1.137116656482805E-03
   1.151419823242422E-03   1.165902901692003E-03   1.180568154842020E-03
   1.195417874168116E-03   1.210454379969149E-03   1.225680021729739E-03
   1.241097178487391E-03   1.256708259204212E-03   1.272515703143327E-03
   1.288521980250012E-03   1.304729591537629E-03   1.321141069478417E-03
   1.337758978399192E-03   1.354585914882035E-03   1.371624508170005E-03
   1.388877420577968E-03   1.406347347908590E-03   1.424037019873557E-03
   1.441949200520106E-03   1.460086688662905E-03   1.478452318321376E-03
   1.497048959162521E-03   1.515879516949303E-03   1.534946933994690E-03
   1.554254189621388E-03   1.573804300627369E-03   1.593600321757252E-03
   1.613645346179614E-03   1.633942505970305E-03   1.654494972601835E-03
   1.675305957438931E-03   1.696378712240313E-03   1.717716529666790E-03
   1.739322743795751E-03   1.761200730642109E-03   1.783353908685821E-03
   1.805785739406027E-03   1.828499727821913E-03   1.851499423040384E-03
   1.874788418810611E-03   1.898370354085563E-03   1.922248913590605E-03
   1.946427828399240E-03   1.970910876516103E-03   1.995701883467270E-03
   2.020804722898016E-03   2.046223317178075E-03   2.071961638014514E-03
   2.098023707072333E-03   2.124413596602845E-03   2.151135430079979E-03
   2.178193382844582E-03   2.205591682756821E-03   2.233334610856805E-03
   2.261426502033489E-03   2.289871745702024E-03   2.318674786489605E-03
   2.347840124929954E-03   2.377372318166543E-03   2.407275980664647E-03
   2.437555784932371E-03   2.468216462250736E-03   2.499262803412951E-03
   2.530699659472991E-03   2.562531942503572E-03   2.594764626363682E-03
   2.627402747475750E-03   2.660451405612602E-03   2.693915764694312E-03
   2.727801053595071E-03   2.762112566960209E-03   2.796855666033495E-03
   2.832035779494844E-03   2.867658404308564E-03   2.903729106582252E-03
   2.940253522436527E-03   2.977237358885675E-03   3.014686394729383E-03
   3.052606481455696E-03   3.091003544155314E-03   3.129883582447401E-03
   3.169252671417043E-03   3.209116962564488E-03   3.249482684766332E-03
   3.290356145248797E-03   3.331743730573238E-03   3.373651907634065E-03
   3.416087224669210E-03   3.459056312283290E-03   3.502565884483672E-03
   3.546622739729529E-03   3.591233761994128E-03   3.636405921840462E-03
   3.682146277510407E-03   3.728461976027600E-03   3.775360254314162E-03
   3.822848440321488E-03   3.870933954175263E-03   3.919624309334851E-03
   3.968927113767313E-03   4.018850071136146E-03   4.069400982005006E-03
   4.120587745056566E-03   4.172418358326691E-03   4.224900920454158E-03
   4.278043631946072E-03   4.331854796459225E-03   4.386342822097552E-03
   4.441516222725914E-03   4.497383619300415E-03   4.553953741215428E-03
   4.611235427667597E-03   4.669237629036971E-03   4.727969408285517E-03
   4.787439942373239E-03   4.847658523692080E-03   4.908634561517882E-03
   4.970377583480619E-03   5.032897237053083E-03   5.096203291058349E-03
   5.160305637196149E-03   5.225214291588481E-03   5.290939396344659E-03
   5.357491221146011E-03   5.424880164850572E-03   5.493116757117895E-03
   5.562211660054346E-03   5.632175669879093E-03   5.703019718611005E-03
   5.774754875776837E-03   5.847392350140840E-03   5.920943491456161E-03
   5.995419792238278E-03   6.070832889560705E-03   6.147194566873336E-03
   6.224516755843603E-03   6.302811538220847E-03   6.382091147724110E-03
   6.462367971953668E-03   6.543654554326636E-03   6.625963596036886E-03
   6.709307958039642E-03   6.793700663061037E-03   6.879154897632925E-03
   6.965684014153320E-03   7.053301532972719E-03   7.142021144506698E-03
   7.231856711375062E-03   7.322822270567904E-03   7.414932035638921E-03
   7.508200398926304E-03   7.602641933801568E-03   7.698271396946687E-03
   7.795103730659830E-03   7.893154065190155E-03   7.992437721101912E-03
   8.092970211668328E-03   8.194767245295597E-03   8.297844727977325E-03
   8.402218765779896E-03   8.507905667359069E-03   8.614921946508232E-03
   8.723284324738735E-03   8.833009733892639E-03   8.944115318788356E-03
   9.056618439899583E-03   9.170536676067872E-03   9.285887827249404E-03
   9.402689917296229E-03   9.520961196772549E-03   9.640720145806414E-03
   9.761985476977255E-03   9.884776138239791E-03   1.000911131588466E-02
   1.013501043753633E-02   1.026249317518871E-02   1.039157944827891E-02
   1.052228942679973E-02   1.065464353445127E-02   1.078866245183209E-02
   1.092436711967073E-02   1.106177874209760E-02   1.120091878995830E-02
   1.134180900416837E-02   1.148447139911043E-02   1.162892826607394E-02
   1.177520217673827E-02   1.192331598669954E-02   1.207329283904192E-02
   1.222515616795369E-02   1.237892970238898E-02   1.253463746977540E-02
   1.269230379976839E-02   1.285195332805279E-02   1.301361100019219E-02
   1.317730207552678E-02   1.334305213112009E-02   1.351088706575555E-02
   1.368083310398314E-02   1.385291680021709E-02   1.402716504288507E-02
   1.420360505862947E-02   1.438226441656176E-02   1.456317103257007E-02
   1.474635317368122E-02   1.493183946247745E-02   1.511965888156875E-02
   1.530984077812149E-02   1.550241486844392E-02   1.569741124262945E-02
   1.589486036925828E-02   1.609479310015814E-02   1.629724067522502E-02
   1.650223472730439E-02   1.670980728713396E-02   1.691999078834851E-02
   1.713281807254773E-02   1.734832239442778E-02   1.756653742697740E-02
   1.778749726673937E-02   1.801123643913822E-02   1.823778990387482E-02
   1.846719306038899E-02   1.869948175339063E-02   1.893469227846063E-02
   1.917286138772207E-02   1.941402629558283E-02   1.965822468455042E-02
   1.990549471111995E-02   2.015587501173612E-02   2.040940470883032E-02
   2.066612341693354E-02   2.092607124886621E-02   2.118928882200594E-02
   2.145581726463404E-02   2.172569822236195E-02   2.199897386463837E-02
   2.227568689133841E-02   2.255588053943546E-02   2.283959858975708E-02
   2.312688537382588E-02   2.341778578078636E-02   2.371234526441894E-02
   2.401060985024222E-02   2.431262614270457E-02   2.461844133246614E-02
   2.492810320377252E-02   2.524166014192110E-02   2.555916114082142E-02
   2.588065581065050E-02   2.620619438560461E-02   2.653582773174838E-02
   2.686960735496280E-02   2.720758540899307E-02   2.754981470359776E-02
   2.789634871280043E-02   2.824724158324502E-02   2.860254814265646E-02
   2.896232390840753E-02   2.932662509619359E-02   2.969550862881641E-02
   3.006903214507847E-02   3.044725400878912E-02   3.083023331788405E-02
   3.121802991365952E-02   3.161070439012256E-02   3.200831810345903E-02
   3.241093318162060E-02   3.281861253403235E-02   3.323141986142254E-02
   3.364941966577591E-02   3.407267726041235E-02   3.450125878019211E-02
   3.493523119184964E-02   3.537466230445719E-02   3.581962078002011E-02
   3.627017614420549E-02   3.672639879720565E-02   3.718836002473831E-02
   3.765613200918515E-02   3.812978784087042E-02   3.860940152948148E-02
   3.909504801563295E-02   3.958680318257637E-02   4.008474386805704E-02
   4.058894787632013E-02   4.109949399026776E-02   4.161646198376893E-02
   4.213993263412442E-02   4.266998773468836E-02   4.320671010764860E-02
   4.375018361696789E-02   4.430049318148777E-02   4.485772478819732E-02
   4.542196550566879E-02   4.599330349766220E-02   4.657182803690123E-02
   4.715762951902216E-02   4.775079947669836E-02   4.835143059394257E-02
   4.895961672058882E-02   4.957545288695678E-02   5.019903531870037E-02
   5.083046145184322E-02   5.146982994800333E-02   5.211724070980898E-02
   5.277279489650889E-02   5.343659493977845E-02   5.410874455972497E-02
   5.478934878109404E-02   5.547851394967995E-02   5.617634774894240E-02
   5.688295921683229E-02   5.759845876282910E-02   5.832295818519258E-02
   5.905657068843147E-02   5.979941090099195E-02   6.055159489316856E-02
   6.131324019524041E-02   6.208446581583552E-02   6.286539226052618E-02
   6.365614155065817E-02   6.445683724241690E-02   6.526760444613318E-02
   6.608856984583217E-02   6.691986171902779E-02   6.776160995676654E-02
   6.861394608392310E-02   6.947700327975143E-02   7.035091639869427E-02
   7.123582199145446E-02   7.213185832633123E-02   7.303916541082490E-02
   7.395788501351334E-02   7.488816068620363E-02   7.583013778636229E-02
   7.678396349982766E-02   7.774978686380808E-02   7.872775879016915E-02
   7.971803208901404E-02   8.072076149256044E-02   8.173610367931772E-02
   8.276421729856828E-02   8.380526299515685E-02   8.485940343459157E-02
   8.592680332846071E-02   8.700762946016936E-02   8.810205071099958E-02
   8.921023808649840E-02   9.033236474319789E-02   9.146860601567110E-02
   9.261913944392859E-02   9.378414480115932E-02   9.496380412182054E-02
   9.615830173008115E-02   9.736782426862267E-02   9.859256072780254E-02
   9.983270247518428E-02   1.010884432854389E-01   1.023599793706230E-01
   1.036475094108367E-01   1.049512345852684E-01   1.062713586036289E-01
   1.076080877379820E-01   1.089616308549746E-01   1.103321994484724E-01
   1.117200076726066E-01   1.131252723752358E-01   1.145482131318287E-01
   1.159890522797737E-01   1.174480149531189E-01   1.189253291177505E-01
   1.204212256070121E-01   1.219359381577737E-01   1.234697034469530E-01
   1.250227611284970E-01   1.265953538708281E-01   1.281877273947618E-01
   1.298001305119009E-01   1.314328151635128E-01   1.330860364598962E-01
   1.347600527202421E-01   1.364551255129970E-01   1.381715196967334E-01
   1.399095034615346E-01   1.416693483708998E-01   1.434513294041763E-01
   1.452557249995264E-01   1.470828170974326E-01   1.489328911847527E-01
   1.508062363393267E-01   1.527031452751463E-01   1.546239143880922E-01
   1.565688438022460E-01   1.585382374167857E-01   1.605324029534703E-01
   1.625516520047222E-01   1.645963000823136E-01   1.666666666666667E-01
   1.687630752567725E-01   1.708858534207382E-01   1.730353328469709E-01
   1.752118493960041E-01   1.774157431529766E-01   1.796473584807720E-01
   1.819070440738254E-01   1.841951530126080E-01   1.865120428187968E-01
   1.888580755111378E-01   1.912336176620121E-01   1.936390404547139E-01
   1.960747197414485E-01   1.985410361020598E-01   2.010383749034969E-01
   2.035671263600284E-01   2.061276855942142E-01   2.087204526986441E-01
   2.113458327984533E-01   2.140042361146237E-01   2.166960780280819E-01
   2.194217791446037E-01   2.221817653605339E-01   2.249764679293339E-01
   2.278063235289662E-01   2.306717743301253E-01   2.335732680653290E-01
   2.365112580988763E-01   2.394862034976875E-01   2.424985691030337E-01
   2.455488256031693E-01   2.486374496068785E-01   2.517649237179455E-01
   2.549317366105632E-01   2.581383831056890E-01   2.613853642483616E-01
   2.646731873859907E-01   2.680023662476306E-01   2.713734210242518E-01
   2.747868784500215E-01   2.782432718846072E-01   2.817431413965154E-01
   2.852870338474775E-01   2.888755029778993E-01   2.925091094933832E-01
   2.961884211523398E-01   2.999140128547016E-01   3.036864667317516E-01
   3.075063722370834E-01   3.113743262387039E-01   3.152909331122951E-01
   3.192568048356495E-01   3.232725610842925E-01   3.273388293283080E-01
   3.314562449303821E-01   3.356254512450796E-01   3.398470997193694E-01
   3.441218499944145E-01   3.484503700086428E-01   3.528333361021126E-01
   3.572714331221933E-01   3.617653545305739E-01   3.663158025116171E-01
   3.709234880820781E-01   3.755891312022016E-01   3.803134608882174E-01
   3.850972153262509E-01   3.899411419876653E-01   3.948459977458569E-01
   3.998125489945165E-01   4.048415717673815E-01   4.099338518594918E-01
   4.150901849499720E-01   4.203113767263582E-01   4.255982430104880E-01
   4.309516098859745E-01   4.363723138272837E-01   4.418612018304346E-01
   4.474191315453452E-01   4.530469714098411E-01   4.587456007853509E-01
   4.645159100943086E-01   4.703588009592836E-01   4.762751863438608E-01
   4.822659906952937E-01   4.883321500889504E-01   4.944746123745781E-01
   5.006943373244058E-01   5.069922967831109E-01   5.133694748196721E-01
   5.198268678811323E-01   5.263654849482948E-01   5.329863476933795E-01
   5.396904906396603E-01   5.464789613231126E-01   5.533528204560915E-01
   5.603131420930717E-01   5.673610137984701E-01   5.744975368165793E-01
   5.817238262436405E-01   5.890410112020785E-01   5.964502350169301E-01
   6.039526553944906E-01   6.115494446032077E-01   6.192417896568509E-01
   6.270308924999853E-01   6.349179701957771E-01   6.429042551161627E-01
   6.509909951344089E-01   6.591794538200965E-01   6.674709106365544E-01
   6.758666611407794E-01   6.843680171858691E-01   6.929763071260017E-01
   7.016928760239938E-01   7.105190858614699E-01   7.194563157516743E-01
   7.285059621549600E-01   7.376694390969893E-01   7.469481783896779E-01
   7.563436298549174E-01   7.658572615511151E-01   7.754905600025789E-01
   7.852450304317906E-01   7.951221969946008E-01   8.051236030183802E-01
   8.152508112431679E-01   8.255054040658529E-01   8.358889837874269E-01
   8.464031728633472E-01   8.570496141570479E-01   8.678299711966418E-01
   8.787459284348490E-01   8.897991915121964E-01   9.009914875235282E-01
   9.123245652878670E-01   9.238001956216709E-01   9.354201716155267E-01
   9.471863089143243E-01   9.591004460009556E-01   9.711644444835793E-01
   9.833801893865033E-01   9.957495894447211E-01   1.008274577402158E+00
   1.020957110313665E+00   1.033799169850811E+00   1.046802762611528E+00
   1.059969920433639E+00   1.073302700712344E+00   1.086803186721686E+00
   1.100473487940072E+00   1.114315740379879E+00   1.128332106921213E+00
   1.142524777649864E+00   1.156895970199506E+00   1.171447930098216E+00
   1.186182931119333E+00   1.201103275636745E+00   1.216211294984639E+00
   1.231509349821776E+00   1.246999830500347E+00   1.262685157439475E+00
   1.278567781503406E+00   1.294650184384463E+00   1.310934878990816E+00
   1.327424409839129E+00   1.344121353452146E+00   1.361028318761276E+00
   1.378147947514246E+00   1.395482914687878E+00   1.413035928906063E+00
   1.430809732862983E+00   1.448807103751668E+00   1.467030853697936E+00
   1.485483830199790E+00   1.504168916572355E+00   1.523089032398388E+00
   1.542247133984483E+00   1.561646214822989E+00   1.581289306059755E+00
   1.601179476967751E+00   1.621319835426648E+00   1.641713528408432E+00
   1.662363742469121E+00   1.683273704246676E+00   1.704446680965167E+00
   1.725885980945282E+00   1.747594954121263E+00   1.769576992564335E+00
   1.791835531012727E+00   1.814374047408357E+00   1.837196063440268E+00
   1.860305145094896E+00   1.883704903213265E+00   1.907398994055188E+00
   1.931391119870566E+00   1.955685029477869E+00   1.980284518849901E+00
   2.005193431706923E+00   2.030415660117246E+00   2.055955145105377E+00
   2.081815877267802E+00   2.108001897396539E+00   2.134517297110507E+00
   2.161366219494857E+00   2.188552859748337E+00   2.216081465838798E+00
   2.243956339166949E+00   2.272181835238461E+00   2.300762364344517E+00
   2.329702392250940E+00   2.359006440895968E+00   2.388679089096823E+00
   2.418724973265154E+00   2.449148788131491E+00   2.479955287478807E+00
   2.511149284885299E+00   2.542735654476528E+00   2.574719331687005E+00
   2.607105314031363E+00   2.639898661885237E+00   2.673104499275946E+00
   2.706728014683141E+00   2.740774461849510E+00   2.775249160601692E+00
   2.810157497681507E+00   2.845504927587644E+00   2.881296973427942E+00
   2.917539227782382E+00   2.954237353576942E+00   2.991397084968442E+00
   3.029024228240511E+00   3.067124662710842E+00   3.105704341649836E+00
   3.144769293210815E+00   3.184325621371943E+00   3.224379506889969E+00
   3.264937208266000E+00   3.306005062723389E+00   3.347589487197946E+00
   3.389696979340604E+00   3.432334118532673E+00   3.475507566913903E+00
   3.519224070423438E+00   3.563490459853892E+00   3.608313651918678E+00
   3.653700650332745E+00   3.699658546906941E+00   3.746194522656104E+00
   3.793315848921123E+00   3.841029888505098E+00   3.889344096823787E+00
   3.938266023070538E+00   3.987803311395858E+00   4.037963702101831E+00
   4.088755032851561E+00   4.140185239893808E+00   4.192262359303062E+00
   4.244994528235183E+00   4.298389986198845E+00   4.352457076342996E+00
   4.407204246760467E+00   4.462640051808022E+00   4.518773153442985E+00
   4.575612322576686E+00   4.633166440444946E+00   4.691444499995776E+00
   4.750455607294549E+00   4.810208982946839E+00   4.870713963539159E+00
   4.931980003097828E+00   4.994016674566171E+00   5.056833671300322E+00
   5.120440808583822E+00   5.184848025161279E+00   5.250065384791325E+00
   5.316103077819085E+00   5.382971422768449E+00   5.450680867954362E+00
   5.519241993115387E+00   5.588665511066825E+00   5.658962269374594E+00
   5.730143252050200E+00   5.802219581267008E+00   5.875202519098093E+00
   5.949103469275983E+00   6.023933978974491E+00   6.099705740613001E+00
   6.176430593683432E+00   6.254120526600169E+00   6.332787678573297E+00
   6.412444341505359E+00   6.493102961911998E+00   6.574776142866759E+00
   6.657476645970326E+00   6.741217393344569E+00   6.826011469651637E+00
   6.911872124138462E+00   6.998812772707002E+00   7.086847000010468E+00
   7.175988561575990E+00   7.266251385953922E+00   7.357649576894208E+00
   7.450197415550143E+00   7.543909362709798E+00   7.638800061055583E+00
   7.734884337452166E+00   7.832177205263218E+00   7.930693866697283E+00
   8.030449715183140E+00   8.131460337775072E+00   8.233741517588369E+00
   8.337309236265462E+00   8.442179676473112E+00   8.548369224430955E+00
   8.655894472471912E+00   8.764772221634745E+00   8.875019484289274E+00
   8.986653486794594E+00   9.099691672190714E+00   9.214151702924072E+00
   9.330051463607360E+00   9.447409063813970E+00   9.566242840907707E+00
   9.686571362908007E+00   9.808413431391235E+00   9.931788084428499E+00
   1.005671459956033E+01   1.018321249680890E+01   1.031130154172799E+01
   1.044100174849148E+01   1.057233338302056E+01   1.070531696615032E+01
   1.083997327683617E+01   1.097632335540063E+01   1.111438850682087E+01
   1.125419030405769E+01   1.139575059142636E+01   1.153909148800977E+01
   1.168423539111465E+01   1.183120497977116E+01   1.198002321827651E+01
   1.213071335978328E+01   1.228329894993264E+01   1.243780383053350E+01
   1.259425214328778E+01   1.275266833356265E+01   1.291307715421015E+01
   1.307550366943486E+01   1.323997325871023E+01   1.340651162074422E+01
   1.357514477749469E+01   1.374589907823550E+01   1.391880120367355E+01
   1.409387817011768E+01   1.427115733370011E+01   1.445066639465082E+01
   1.463243340162581E+01   1.481648675608972E+01   1.500285521675365E+01
   1.519156790406874E+01   1.538265430477631E+01   1.557614427651528E+01
   1.577206805248736E+01   1.597045624618116E+01   1.617133985615557E+01
   1.637475027088334E+01   1.658071927365564E+01   1.678927904754819E+01
   1.700046218044996E+01   1.721430167015514E+01   1.743083092951904E+01
   1.765008379167899E+01   1.787209451534076E+01   1.809689779013162E+01
   1.832452874202060E+01   1.855502293880706E+01   1.878841639567820E+01
   1.902474558083651E+01   1.926404742119796E+01   1.950635930816199E+01
   1.975171910345389E+01   2.000016514504091E+01   2.025173625312249E+01
   2.050647173619611E+01   2.076441139719924E+01   2.102559553972869E+01
   2.129006497433815E+01   2.155786102491483E+01   2.182902553513645E+01
   2.210360087500944E+01   2.238162994748926E+01   2.266315619518416E+01
   2.294822360714312E+01   2.323687672572922E+01   2.352916065357950E+01
   2.382512106065234E+01   2.412480419136350E+01   2.442825687181186E+01
   2.473552651709612E+01   2.504666113872350E+01   2.536170935211160E+01
   2.568072038418480E+01   2.600374408106585E+01   2.633083091586460E+01
   2.666203199656445E+01   2.699739907400806E+01   2.733698454998364E+01
   2.768084148541269E+01   2.802902360864093E+01   2.838158532383352E+01
   2.873858171947572E+01   2.910006857698072E+01   2.946610237940541E+01
   2.983674032027614E+01   3.021204031252523E+01   3.059206099754000E+01
   3.097686175432569E+01   3.136650270878341E+01   3.176104474310503E+01
   3.216054950528610E+01   3.256507941875849E+01   3.297469769214426E+01
   3.338946832913197E+01   3.380945613847751E+01   3.423472674413056E+01
   3.466534659548844E+01   3.510138297777909E+01   3.554290402257434E+01
   3.598997871843572E+01   3.644267692169403E+01   3.690106936736453E+01
   3.736522768019952E+01   3.783522438587968E+01   3.831113292234651E+01
   3.879302765127705E+01   3.928098386970310E+01   3.977507782177661E+01
   4.027538671068280E+01   4.078198871070344E+01   4.129496297943172E+01
   4.181438967014076E+01   4.234034994430784E+01   4.287292598429583E+01
   4.341220100619450E+01   4.395825927282321E+01   4.451118610689702E+01
   4.507106790435879E+01   4.563799214787843E+01   4.621204742052237E+01
   4.679332341959492E+01   4.738191097065349E+01   4.797790204170051E+01
   4.858138975755336E+01   4.919246841439542E+01   4.981123349451010E+01
   5.043778168119997E+01   5.107221087389405E+01   5.171462020344440E+01
   5.236511004761575E+01   5.302378204676967E+01   5.369073911974609E+01
   5.436608547994467E+01   5.504992665160815E+01   5.574236948631088E+01
   5.644352217965459E+01   5.715349428817407E+01   5.787239674645579E+01
   5.860034188447147E+01   5.933744344512991E+01   6.008381660204962E+01
   6.083957797755482E+01   6.160484566089815E+01   6.237973922671203E+01
   6.316437975369265E+01   6.395888984351870E+01   6.476339364000813E+01
   6.557801684851601E+01   6.640288675557599E+01   6.723813224878926E+01
   6.808388383696342E+01   6.894027367050479E+01   6.980743556206733E+01
   7.068550500746076E+01   7.157461920682239E+01   7.247491708605477E+01
   7.338653931853315E+01   7.430962834708619E+01   7.524432840625259E+01
   7.619078554481823E+01   7.714914764863660E+01   7.811956446373617E+01
   7.910218761971875E+01   8.009717065345156E+01   8.110466903305793E+01
   8.212484018220947E+01   8.315784350472367E+01   8.420384040947151E+01
   8.526299433559737E+01   8.633547077805707E+01   8.742143731347674E+01
   8.852106362633685E+01   8.963452153548616E+01   9.076198502098823E+01
   9.190363025130654E+01   9.305963561083099E+01   9.423018172775086E+01
   9.541545150227857E+01   9.661563013522773E+01   9.783090515695157E+01
   9.906146645664471E+01   1.003075063120137E+02
    </PP_R>
    <PP_RAB>
   1.899754094905242E-06   1.923650059727130E-06   1.947846598784546E-06
   1.972347492835946E-06   1.997156570195875E-06   2.022277707333144E-06
   2.047714829476539E-06   2.073471911228149E-06   2.099552977184397E-06
   2.125962102564906E-06   2.152703413849244E-06   2.179781089421705E-06
   2.207199360224188E-06   2.234962510417285E-06   2.263074878049704E-06
   2.291540855736080E-06   2.320364891343340E-06   2.349551488685692E-06
   2.379105208228349E-06   2.409030667800121E-06   2.439332543314947E-06
   2.470015569502527E-06   2.501084540648127E-06   2.532544311341698E-06
   2.564399797236419E-06   2.596655975816770E-06   2.629317887176280E-06
   2.662390634805051E-06   2.695879386387184E-06   2.729789374608250E-06
   2.764125897972899E-06   2.798894321632764E-06   2.834100078224779E-06
   2.869748668720036E-06   2.905845663283331E-06   2.942396702143504E-06
   2.979407496474739E-06   3.016883829288949E-06   3.054831556339382E-06
   3.093256607035598E-06   3.132164985369943E-06   3.171562770855691E-06
   3.211456119476980E-06   3.251851264650692E-06   3.292754518200452E-06
   3.334172271342842E-06   3.376110995686056E-06   3.418577244241096E-06
   3.461577652445696E-06   3.505118939201128E-06   3.549207907922029E-06
   3.593851447599463E-06   3.639056533877333E-06   3.684830230142335E-06
   3.731179688627645E-06   3.778112151530448E-06   3.825634952143557E-06
   3.873755516001253E-06   3.922481362039536E-06   3.971820103770993E-06
   4.021779450474394E-06   4.072367208399306E-06   4.123591281985827E-06
   4.175459675099665E-06   4.227980492282779E-06   4.281161940019706E-06
   4.335012328019853E-06   4.389540070515904E-06   4.444753687578559E-06