<UPF version="2.0.1">
  <PP_INFO>
    Generated using "atomic" code by A. Dal Corso  v.7.2
    Author: ADC
    Generation date: 31May2024
    Pseudopotential type: PAW
    Element: Fr
    Functional:  SLA  PW   PBX  PBC
    Suggested minimum cutoff for wavefunctions:  63. Ry
    Suggested minimum cutoff for charge density: 506. Ry
    The Pseudo was generated with a Scalar-Relativistic Calculation
    Local Potential by smoothing AE potential with Bessel fncs, cutoff radius:   2.2000
    Valence configuration: 
    nl pn  l   occ       Rcut    Rcut US       E pseu
    6S  1  0  2.00      1.000      2.100    -2.091417
    7S  2  0  1.00      1.000      2.100    -0.159439
    6P  2  1  6.00      1.200      2.100    -0.897228
    5D  3  2 10.00      0.850      1.500    -4.234958
    Generation configuration:
    6S  1  0  2.00      1.000      2.100    -2.091426
    7S  2  0  1.00      1.000      2.100    -0.159442
    6P  2  1  6.00      1.200      2.100    -0.897232
    7P  3  1  0.00      1.200      2.100     6.500000
    5D  3  2 10.00      0.850      1.500    -4.234977
    5D  3  2 -2.00      0.850      1.500    -3.200000
    Pseudization used: troullier-martins
    <PP_INPUTFILE>
@input
title='Fr',
zed=87.,
rel=1,
config='[Xe] 4f14.0 5d10.0 6s2.0 6p6.0 6d-2.0 7s1. 7p-1.',
iswitch=3,
dft='PBE'
/
@inputp
lpaw=.true.,
pseudotype=3,
file_pseudopw='Fr.pbe-spdn-kjpaw_psl.1.0.0.UPF',
author='ADC',
lloc=-1,
rcloc=2.2,
which_augfun='PSQ',
rmatch_augfun_nc=.true.,
nlcc=.true.,
new_core_ps=.true.,
rcore=1.2,
tm=.true.
/
6
6S  1  0  2.00  0.00  1.00  2.10  0.0
7S  2  0  1.00  0.00  1.00  2.10  0.0
6P  2  1  6.00  0.00  1.20  2.10  0.0
7P  3  1  0.00  6.50  1.20  2.10  0.0
5D  3  2 10.00  0.00  0.85  1.50  0.0
5D  3  2 -2.00 -3.20  0.85  1.50  0.0
    </PP_INPUTFILE>
  </PP_INFO>
    <!-- END OF HUMAN READABLE SECTION -->
  <PP_HEADER generated="Generated using 'atomic' code by A. Dal Corso  v.7.2" author="ADC" date="31May2024" comment="" element="Fr" pseudo_type="PAW" relativistic="scalar" is_ultrasoft="true" is_paw="true" is_coulomb="false" has_so="false" has_wfc="true" has_gipaw="false" paw_as_gipaw="false" core_correction="true" functional=" SLA  PW   PBX  PBC" z_valence="19.0000000000000" total_psenergy="-1071.59825509707" wfc_cutoff="62.9344853129757" rho_cutoff="506.084315319787" l_max="2" l_max_rho="4" l_local="-1" mesh_size="1287" number_of_wfc="4" number_of_proj="6"/>
  <PP_MESH mesh="1287" dx="1.250000000000000E-002" xmin="-7.00000000000000" rmax="100.000000000000" zmesh="87.0000000000000">
    <PP_R>
   1.048140190292547E-05   1.061324170883934E-05   1.074673985536301E-05
   1.088191720185349E-05   1.101879487004620E-05   1.115739424735528E-05
   1.129773699021539E-05   1.143984502746565E-05   1.158374056377598E-05
   1.172944608311672E-05   1.187698435227169E-05   1.202637842439561E-05
   1.217765164261621E-05   1.233082764368157E-05   1.248593036165354E-05
   1.264298403164734E-05   1.280201319361843E-05   1.296304269619692E-05
   1.312609770057020E-05   1.329120368441446E-05   1.345838644587557E-05
   1.362767210760015E-05   1.379908712081725E-05   1.397265826947143E-05
   1.414841267440783E-05   1.432637779760977E-05   1.450658144648982E-05
   1.468905177823476E-05   1.487381730420515E-05   1.506090689439035E-05
   1.525034978191944E-05   1.544217556762904E-05   1.563641422468844E-05
   1.583309610328295E-05   1.603225193535631E-05   1.623391283941243E-05
   1.643811032537787E-05   1.664487629952524E-05   1.685424306945866E-05
   1.706624334916192E-05   1.728091026411003E-05   1.749827735644519E-05
   1.771837859021782E-05   1.794124835669347E-05   1.816692147972663E-05
   1.839543322120189E-05   1.862681928654376E-05   1.886111583029570E-05
   1.909835946176936E-05   1.933858725076484E-05   1.958183673336292E-05
   1.982814591779014E-05   2.007755329035770E-05   2.033009782147495E-05
   2.058581897173873E-05   2.084475669809903E-05   2.110695146010238E-05
   2.137244422621381E-05   2.164127648021813E-05   2.191349022770203E-05
   2.218912800261735E-05   2.246823287392721E-05   2.275084845233559E-05
   2.303701889710160E-05   2.332678892293947E-05   2.362020380700528E-05
   2.391730939597160E-05   2.421815211319120E-05   2.452277896595067E-05
   2.483123755281557E-05   2.514357607106765E-05   2.545984332423583E-05
   2.578008872972188E-05   2.610436232652192E-05   2.643271478304524E-05
   2.676519740503119E-05   2.710186214356590E-05   2.744276160319969E-05
   2.778794905016670E-05   2.813747842070785E-05   2.849140432949838E-05
   2.884978207818159E-05   2.921266766400986E-05   2.958011778859425E-05
   2.995218986676435E-05   3.032894203553933E-05   3.071043316321208E-05
   3.109672285854744E-05   3.148787148009619E-05   3.188394014562631E-05
   3.228499074167256E-05   3.269108593320652E-05   3.310228917342808E-05
   3.351866471368009E-05   3.394027761348789E-05   3.436719375072483E-05
   3.479947983190592E-05   3.523720340261084E-05   3.568043285803803E-05
   3.612923745369173E-05   3.658368731620307E-05   3.704385345428766E-05
   3.750980776984079E-05   3.798162306917221E-05   3.845937307438243E-05
   3.894313243488174E-05   3.943297673905442E-05   3.992898252606958E-05
   4.043122729784056E-05   4.093978953113482E-05   4.145474868983598E-05
   4.197618523736027E-05   4.250418064922910E-05   4.303881742579977E-05
   4.358017910515641E-05   4.412835027616280E-05   4.468341659167966E-05
   4.524546478194808E-05   4.581458266814127E-05   4.639085917608688E-05
   4.697438435016168E-05   4.756524936736134E-05   4.816354655154689E-05
   4.876936938787058E-05   4.938281253738322E-05   5.000397185182493E-05
   5.063294438860237E-05   5.126982842595404E-05   5.191472347830652E-05
   5.256773031182383E-05   5.322895096015225E-05   5.389848874036334E-05
   5.457644826909745E-05   5.526293547891023E-05   5.595805763482487E-05
   5.666192335109255E-05   5.737464260816341E-05   5.809632676987142E-05
   5.882708860083512E-05   5.956704228407730E-05   6.031630343886649E-05
   6.107498913878248E-05   6.184321793000943E-05   6.262110984985895E-05
   6.340878644552611E-05   6.420637079308161E-05   6.501398751670239E-05
   6.583176280814465E-05   6.665982444646146E-05   6.749830181796841E-05
   6.834732593646085E-05   6.920702946368459E-05   7.007754673006480E-05
   7.095901375569549E-05   7.185156827159267E-05   7.275534974121548E-05
   7.367049938225727E-05   7.459716018871134E-05   7.553547695321401E-05
   7.648559628966867E-05   7.744766665615479E-05   7.842183837812445E-05
   7.940826367189117E-05   8.040709666841399E-05   8.141849343738068E-05
   8.244261201159424E-05   8.347961241166542E-05   8.452965667101650E-05
   8.559290886119936E-05   8.666953511753184E-05   8.775970366505703E-05
   8.886358484482840E-05   8.998135114052613E-05   9.111317720540808E-05
   9.225923988959948E-05   9.341971826772657E-05   9.459479366689690E-05
   9.578464969503229E-05   9.698947226955791E-05   9.820944964645217E-05
   9.944477244966247E-05   1.006956337008900E-04   1.019622288497501E-04
   1.032447558043118E-04   1.045434149620209E-04   1.058584092410131E-04
   1.071899441118198E-04   1.085382276294737E-04   1.099034704660174E-04
   1.112858859434217E-04   1.126856900669176E-04   1.141031015587473E-04
   1.155383418923401E-04   1.169916353269181E-04   1.184632089425372E-04
   1.199532926755690E-04   1.214621193546282E-04   1.229899247369532E-04
   1.245369475452432E-04   1.261034295049595E-04   1.276896153820955E-04
   1.292957530214214E-04   1.309220933852112E-04   1.325688905924555E-04
   1.342364019585683E-04   1.359248880355933E-04   1.376346126529152E-04
   1.393658429584839E-04   1.411188494605569E-04   1.428939060699665E-04
   1.446912901429195E-04   1.465112825243341E-04   1.483541675917227E-04
   1.502202332996263E-04   1.521097712246084E-04   1.540230766108141E-04
   1.559604484161027E-04   1.579221893587603E-04   1.599086059648004E-04
   1.619200086158589E-04   1.639567115976926E-04   1.660190331492860E-04
   1.681072955125773E-04   1.702218249828094E-04   1.723629519595138E-04
   1.745310109981373E-04   1.767263408623153E-04   1.789492845768056E-04
   1.812001894810862E-04   1.834794072836277E-04   1.857872941168491E-04
   1.881242105927635E-04   1.904905218593248E-04   1.928865976574824E-04
   1.953128123789548E-04   1.977695451247285E-04   2.002571797642933E-04
   2.027761049956226E-04   2.053267144059086E-04   2.079094065330609E-04
   2.105245849279791E-04   2.131726582176079E-04   2.158540401687863E-04
   2.185691497528995E-04   2.213184112113440E-04   2.241022541218160E-04
   2.269211134654343E-04   2.297754296947061E-04   2.326656488023493E-04
   2.355922223909800E-04   2.385556077436752E-04   2.415562678954257E-04
   2.445946717054848E-04   2.476712939306295E-04   2.507866152993422E-04
   2.539411225869246E-04   2.571353086915586E-04   2.603696727113215E-04
   2.636447200221716E-04   2.669609623569146E-04   2.703189178851622E-04
   2.737191112942975E-04   2.771620738714583E-04   2.806483435865522E-04
   2.841784651763150E-04   2.877529902294270E-04   2.913724772727005E-04
   2.950374918583498E-04   2.987486066523603E-04   3.025064015239692E-04
   3.063114636362699E-04   3.101643875379596E-04   3.140657752562364E-04
   3.180162363908687E-04   3.220163882094463E-04   3.260668557438287E-04
   3.301682718878096E-04   3.343212774960054E-04   3.385265214839919E-04
   3.427846609296978E-04   3.470963611760747E-04   3.514622959350586E-04
   3.558831473928378E-04   3.603596063164470E-04   3.648923721617006E-04
   3.694821531824835E-04   3.741296665414187E-04   3.788356384219237E-04
   3.836008041416791E-04   3.884259082675237E-04   3.933117047317935E-04
   3.982589569501267E-04   4.032684379407476E-04   4.083409304452525E-04
   4.134772270509157E-04   4.186781303145314E-04   4.239444528878163E-04
   4.292770176443864E-04   4.346766578083343E-04   4.401442170844214E-04
   4.456805497899082E-04   4.512865209880438E-04   4.569630066232335E-04
   4.627108936579063E-04   4.685310802111060E-04   4.744244756988224E-04
   4.803920009760910E-04   4.864345884808772E-04   4.925531823797723E-04
   4.987487387155215E-04   5.050222255564071E-04   5.113746231475118E-04
   5.178069240638830E-04   5.243201333656254E-04   5.309152687549439E-04
   5.375933607351607E-04   5.443554527717348E-04   5.512026014553043E-04
   5.581358766667813E-04   5.651563617445239E-04   5.722651536536086E-04
   5.794633631572342E-04   5.867521149902806E-04   5.941325480350504E-04
   6.016058154992231E-04   6.091730850960440E-04   6.168355392267832E-04
   6.245943751654884E-04   6.324508052460602E-04   6.404060570516831E-04
   6.484613736066364E-04   6.566180135705206E-04   6.648772514349251E-04
   6.732403777225693E-04   6.817086991889511E-04   6.902835390265285E-04
   6.989662370714709E-04   7.077581500130142E-04   7.166606516054417E-04
   7.256751328827402E-04   7.348030023759494E-04   7.440456863332478E-04
   7.534046289428087E-04   7.628812925584552E-04   7.724771579281584E-04
   7.821937244254049E-04   7.920325102834779E-04   8.019950528326858E-04
   8.120829087405701E-04   8.222976542551409E-04   8.326408854511666E-04
   8.431142184795648E-04   8.537192898199300E-04   8.644577565362345E-04
   8.753312965357512E-04   8.863416088312269E-04   8.974904138063582E-04
   9.087794534846056E-04   9.202104918013855E-04   9.317853148796928E-04
   9.435057313091819E-04   9.553735724287651E-04   9.673906926127632E-04
   9.795589695606533E-04   9.918803045904660E-04   1.004356622935867E-03
   1.016989874046981E-03   1.029782031894997E-03   1.042735095280604E-03
   1.055851088146309E-03   1.069132059892684E-03   1.082580085698583E-03
   1.096197266845398E-03   1.109985731045389E-03   1.123947632774139E-03
   1.138085153607199E-03   1.152400502560963E-03   1.166895916437829E-03
   1.181573660175706E-03   1.196436027201916E-03   1.211485339791545E-03
   1.226723949430301E-03   1.242154237181946E-03   1.257778614060333E-03
   1.273599521406137E-03   1.289619431268319E-03   1.305840846790388E-03
   1.322266302601522E-03   1.338898365212609E-03   1.355739633417270E-03
   1.372792738697927E-03   1.390060345636974E-03   1.407545152333126E-03
   1.425249890823003E-03   1.443177327508015E-03   1.461330263586617E-03
   1.479711535492003E-03   1.498324015335307E-03   1.517170611354370E-03
   1.536254268368166E-03   1.555577968236928E-03   1.575144730328074E-03
   1.594957611987992E-03   1.615019709019749E-03   1.635334156166823E-03
   1.655904127602911E-03   1.676732837427901E-03   1.697823540170079E-03
   1.719179531294656E-03   1.740804147718697E-03   1.762700768332511E-03
   1.784872814527621E-03   1.807323750731353E-03   1.830057084948164E-03
   1.853076369307779E-03   1.876385200620212E-03   1.899987220937777E-03
   1.923886118124167E-03   1.948085626430691E-03   1.972589527079756E-03
   1.997401648855692E-03   2.022525868703007E-03   2.047966112332167E-03
   2.073726354832998E-03   2.099810621295801E-03   2.126222987440280E-03
   2.152967580252380E-03   2.180048578629142E-03   2.207470214031657E-03
   2.235236771146248E-03   2.263352588553955E-03   2.291822059408451E-03
   2.320649632122476E-03   2.349839811062920E-03   2.379397157254628E-03
   2.409326289093079E-03   2.439631883066013E-03   2.470318674484146E-03
   2.501391458221068E-03   2.532855089462459E-03   2.564714484464711E-03
   2.596974621323114E-03   2.629640540749684E-03   2.662717346860792E-03
   2.696210207974686E-03   2.730124357419060E-03   2.764465094348761E-03
   2.799237784573802E-03   2.834447861397776E-03   2.870100826466823E-03
   2.906202250629270E-03   2.942757774806094E-03   2.979773110872318E-03
   3.017254042549510E-03   3.055206426309502E-03   3.093636192289470E-03
   3.132549345218537E-03   3.171951965356014E-03   3.211850209441464E-03
   3.252250311656700E-03   3.293158584599887E-03   3.334581420271902E-03
   3.376525291075091E-03   3.418996750824605E-03   3.462002435772439E-03
   3.505549065644360E-03   3.549643444689885E-03   3.594292462745447E-03
   3.639503096310958E-03   3.685282409639893E-03   3.731637555843101E-03
   3.778575778006485E-03   3.826104410322755E-03   3.874230879237407E-03
   3.922962704609124E-03   3.972307500884766E-03   4.022272978289144E-03
   4.072866944029757E-03   4.124097303516687E-03   4.175972061597832E-03
   4.228499323809683E-03   4.281687297643829E-03   4.335544293829392E-03
   4.390078727631599E-03   4.445299120166682E-03   4.501214099733323E-03
   4.557832403160839E-03   4.615162877174330E-03   4.673214479777002E-03
   4.731996281649869E-03   4.791517467569064E-03   4.851787337840984E-03
   4.912815309755481E-03   4.974610919057327E-03   5.037183821436200E-03
   5.100543794035402E-03   5.164700736979561E-03   5.229664674921536E-03
   5.295445758608804E-03   5.362054266469523E-03   5.429500606218562E-03
   5.497795316483727E-03   5.566949068452444E-03   5.636972667539153E-03
   5.707877055073675E-03   5.779673310010817E-03   5.852372650661487E-03
   5.925986436445567E-03   6.000526169666853E-03   6.076003497310316E-03
   6.152430212861958E-03   6.229818258151579E-03   6.308179725218696E-03
   6.387526858201972E-03   6.467872055252366E-03   6.549227870470382E-03
   6.631607015867665E-03   6.715022363353288E-03   6.799486946745002E-03
   6.885013963805812E-03   6.971616778306134E-03   7.059308922111931E-03
   7.148104097299084E-03   7.238016178294370E-03   7.329059214043374E-03
   7.421247430205658E-03   7.514595231377558E-03   7.609117203342922E-03
   7.704828115352179E-03   7.801742922430053E-03   7.899876767712328E-03
   7.999244984811979E-03   8.099863100215099E-03   8.201746835706928E-03
   8.304912110828419E-03   8.409375045363703E-03   8.515151961858831E-03
   8.622259388172208E-03   8.730714060057113E-03   8.840532923776677E-03
   8.951733138751784E-03   9.064332080242264E-03   9.178347342061809E-03
   9.293796739327042E-03   9.410698311241174E-03   9.529070323912653E-03
   9.648931273209285E-03   9.770299887648258E-03   9.893195131322507E-03
   1.001763620686389E-02   1.014364255844363E-02   1.027123387481053E-02
   1.040043009236736E-02   1.053125139828595E-02   1.066371823366153E-02
   1.079785129670662E-02   1.093367154598522E-02   1.107120020368761E-02
   1.121045875894636E-02   1.135146897119404E-02   1.149425287356322E-02
   1.163883277632914E-02   1.178523127039574E-02   1.193347123082558E-02
   1.208357582041408E-02   1.223556849330873E-02   1.238947299867393E-02
   1.254531338440175E-02   1.270311400086952E-02   1.286289950474461E-02
   1.302469486283709E-02   1.318852535600084E-02   1.335441658308372E-02
   1.352239446492748E-02   1.369248524841791E-02   1.386471551058599E-02
   1.403911216276058E-02   1.421570245477339E-02   1.439451397921684E-02
   1.457557467575540E-02   1.475891283549129E-02   1.494455710538496E-02
   1.513253649273129E-02   1.532288036969199E-02   1.551561847788510E-02
   1.571078093303215E-02   1.590839822966381E-02   1.610850124588476E-02
   1.631112124819837E-02   1.651628989639224E-02   1.672403924848508E-02
   1.693440176573582E-02   1.714741031771576E-02   1.736309818744452E-02
   1.758149907659057E-02   1.780264711073717E-02   1.802657684471459E-02
   1.825332326799936E-02   1.848292181018142E-02   1.871540834650012E-02
   1.895081920344976E-02   1.918919116445567E-02   1.943056147562175E-02
   1.967496785155017E-02   1.992244848123444E-02   2.017304203402643E-02
   2.042678766567861E-02   2.068372502446218E-02   2.094389425736218E-02
   2.120733601635058E-02   2.147409146473820E-02   2.174420228360656E-02
   2.201771067832065E-02   2.229465938512362E-02   2.257509167781434E-02
   2.285905137450911E-02   2.314658284448825E-02   2.343773101512892E-02
   2.373254137892514E-02   2.403106000059605E-02   2.433333352428363E-02
   2.463940918084092E-02   2.494933479521199E-02   2.526315879390463E-02
   2.558093021255711E-02   2.590269870360011E-02   2.622851454401499E-02
   2.655842864318972E-02   2.689249255087347E-02   2.723075846523151E-02
   2.757327924100114E-02   2.792010839775045E-02   2.827130012824081E-02
   2.862690930689462E-02   2.898699149836953E-02   2.935160296624055E-02
   2.972080068179135E-02   3.009464233291612E-02   3.047318633313342E-02
   3.085649183071346E-02   3.124461871792007E-02   3.163762764036903E-02
   3.203558000650404E-02   3.243853799719197E-02   3.284656457543868E-02
   3.325972349622715E-02   3.367807931647934E-02   3.410169740514331E-02
   3.453064395340730E-02   3.496498598504213E-02   3.540479136687394E-02
   3.585012881938843E-02   3.630106792746861E-02   3.675767915126756E-02
   3.722003383721795E-02   3.768820422918018E-02   3.816226347973045E-02
   3.864228566159116E-02   3.912834577920483E-02   3.962051978045375E-02
   4.011888456852693E-02   4.062351801393645E-02   4.113449896668483E-02
   4.165190726858557E-02   4.217582376573846E-02   4.270633032116213E-02
   4.324350982758519E-02   4.378744622039842E-02   4.433822449076984E-02
   4.489593069892476E-02   4.546065198759286E-02   4.603247659562444E-02
   4.661149387177789E-02   4.719779428868063E-02   4.779146945696563E-02
   4.839261213958578E-02   4.900131626630827E-02   4.961767694839134E-02
   5.024179049344552E-02   5.087375442048202E-02   5.151366747515020E-02
   5.216162964516672E-02   5.281774217593897E-02   5.348210758638475E-02
   5.415482968495108E-02   5.483601358583454E-02   5.552576572540553E-02
   5.622419387883916E-02   5.693140717695538E-02   5.764751612327083E-02
   5.837263261126532E-02   5.910686994186538E-02   5.985034284114771E-02
   6.060316747826545E-02   6.136546148359976E-02   6.213734396713988E-02
   6.291893553709427E-02   6.371035831873594E-02   6.451173597348460E-02
   6.532319371822927E-02   6.614485834489349E-02   6.697685824024685E-02
   6.781932340596575E-02   6.867238547894629E-02   6.953617775187299E-02
   7.041083519404585E-02   7.129649447246975E-02   7.219329397320882E-02
   7.310137382300960E-02   7.402087591119612E-02   7.495194391184040E-02
   7.589472330621183E-02   7.684936140550888E-02   7.781600737387677E-02
   7.879481225171474E-02   7.978592897927630E-02   8.078951242056663E-02
   8.180571938754022E-02   8.283470866460312E-02   8.387664103342339E-02
   8.493167929805348E-02   8.599998831036877E-02   8.708173499582585E-02
   8.817708837954522E-02   8.928621961272158E-02   9.040930199936661E-02
   9.154651102338823E-02   9.269802437601006E-02   9.386402198353627E-02
   9.504468603546522E-02   9.624020101295711E-02   9.745075371765952E-02
   9.867653330089536E-02   9.991773129321849E-02   1.011745416343404E-01
   1.024471607034338E-01   1.037357873498176E-01   1.050406229240268E-01
   1.063618713092747E-01   1.076997389533096E-01   1.090544349006728E-01
   1.104261708253622E-01   1.118151610639068E-01   1.132216226488574E-01
   1.146457753426980E-01   1.160878416721846E-01   1.175480469631150E-01
   1.190266193755367E-01   1.205237899393975E-01   1.220397925906438E-01
   1.235748642077742E-01   1.251292446488523E-01   1.267031767889840E-01
   1.282969065582687E-01   1.299106829802252E-01   1.315447582107026E-01
   1.331993875772804E-01   1.348748296191634E-01   1.365713461275794E-01
   1.382892021866844E-01   1.400286662149825E-01   1.417900100072674E-01
   1.435735087770898E-01   1.453794411997613E-01   1.472080894558970E-01
   1.490597392755074E-01   1.509346799826440E-01   1.528332045406068E-01
   1.547556095977207E-01   1.567021955336869E-01   1.586732665065184E-01
   1.606691305000648E-01   1.626900993721357E-01   1.647364889032291E-01
   1.668086188458727E-01   1.689068129745856E-01   1.710313991364695E-01
   1.731827093024344E-01   1.753610796190709E-01   1.775668504611727E-01
   1.798003664849216E-01   1.820619766817405E-01   1.843520344328239E-01
   1.866708975643545E-01   1.890189284034145E-01   1.913964938345994E-01
   1.938039653573453E-01   1.962417191439754E-01   1.987101360984787E-01
   2.012096019160263E-01   2.037405071432374E-01   2.063032472392029E-01
   2.088982226372766E-01   2.115258388076443E-01   2.141865063206783E-01
   2.168806409110907E-01   2.196086635428926E-01   2.223710004751703E-01
   2.251680833286897E-01   2.280003491533371E-01   2.308682404964101E-01
   2.337722054717657E-01   2.367126978298395E-01   2.396901770285450E-01
   2.427051083050647E-01   2.457579627485443E-01   2.488492173737019E-01
   2.519793551953617E-01   2.551488653039270E-01   2.583582429418003E-01
   2.616079895807671E-01   2.648986130003516E-01   2.682306273671577E-01
   2.716045533152095E-01   2.750209180273006E-01   2.784802553173677E-01
   2.819831057139007E-01   2.855300165444006E-01   2.891215420209008E-01
   2.927582433265643E-01   2.964406887033686E-01   3.001694535408963E-01
   3.039451204662391E-01   3.077682794350360E-01   3.116395278236541E-01
   3.155594705225300E-01   3.195287200306860E-01   3.235478965514328E-01
   3.276176280892792E-01   3.317385505480579E-01   3.359113078302868E-01
   3.401365519377813E-01   3.444149430735290E-01   3.487471497448498E-01
   3.531338488678498E-01   3.575757258731917E-01   3.620734748131949E-01
   3.666277984702818E-01   3.712394084667896E-01   3.759090253761629E-01
   3.806373788355440E-01   3.854252076597811E-01   3.902732599568686E-01
   3.951822932448414E-01   4.001530745701385E-01   4.051863806274547E-01
   4.102829978811022E-01   4.154437226878960E-01   4.206693614215863E-01
   4.259607305988574E-01   4.313186570069082E-01   4.367439778326412E-01
   4.422375407934730E-01   4.478002042697929E-01   4.534328374390868E-01
   4.591363204117466E-01   4.649115443685909E-01   4.707594117001129E-01
   4.766808361474801E-01   4.826767429453104E-01   4.887480689662391E-01
   4.948957628673097E-01   5.011207852382015E-01   5.074241087513247E-01
   5.138067183138030E-01   5.202696112213654E-01   5.268137973141781E-01
   5.334402991346322E-01   5.401501520871185E-01   5.469444045998126E-01
   5.538241182884924E-01   5.607903681224188E-01   5.678442425923014E-01
   5.749868438803767E-01   5.822192880326283E-01   5.895427051331693E-01
   5.969582394808215E-01   6.044670497679135E-01   6.120703092613292E-01
   6.197692059858341E-01   6.275649429097044E-01   6.354587381326947E-01
   6.434518250763696E-01   6.515454526768255E-01   6.597408855798418E-01
   6.680394043384832E-01   6.764423056131886E-01   6.849509023743792E-01
   6.935665241076092E-01   7.022905170213032E-01   7.111242442571027E-01
   7.200690861028605E-01   7.291264402083143E-01   7.382977218034701E-01
   7.475843639197358E-01   7.569878176138363E-01   7.665095521945426E-01
   7.761510554522546E-01   7.859138338914731E-01   7.957994129661913E-01
   8.058093373182520E-01   8.159451710187003E-01   8.262084978121732E-01
   8.366009213643640E-01   8.471240655125959E-01   8.577795745195516E-01
   8.685691133301917E-01   8.794943678319068E-01   8.905570451179414E-01
   9.017588737541282E-01   9.131016040489817E-01   9.245870083271875E-01
   9.362168812065303E-01   9.479930398783107E-01   9.599173243912790E-01
   9.719915979391502E-01   9.842177471517317E-01   9.965976823897115E-01
   1.009133338043159E+00   1.021826672833774E+00   1.034679670120941E+00
   1.047694338211637E+00   1.060872710674229E+00   1.074216846656226E+00
   1.087728831206025E+00   1.101410775598701E+00   1.115264817665902E+00
   1.129293122129886E+00   1.143497880941769E+00   1.157881313624013E+00
   1.172445667617239E+00   1.187193218631389E+00   1.202126271001313E+00
   1.217247158046827E+00   1.232558242437294E+00   1.248061916560801E+00
   1.263760602897972E+00   1.279656754400487E+00   1.295752854874359E+00
   1.312051419368035E+00   1.328554994565377E+00   1.345266159183585E+00
   1.362187524376130E+00   1.379321734140752E+00   1.396671465732586E+00
   1.414239430082490E+00   1.432028372220637E+00   1.450041071705427E+00
   1.468280343057804E+00   1.486749036201023E+00   1.505450036905962E+00
   1.524386267242031E+00   1.543560686033742E+00   1.562976289323046E+00
   1.582636110837456E+00   1.602543222464084E+00   1.622700734729621E+00
   1.643111797286368E+00   1.663779599404379E+00   1.684707370469784E+00
   1.705898380489388E+00   1.727355940601621E+00   1.749083403593904E+00
   1.771084164426538E+00   1.793361660763162E+00   1.815919373507904E+00
   1.838760827349272E+00   1.861889591310901E+00   1.885309279309217E+00
   1.909023550718116E+00   1.933036110940754E+00   1.957350711988519E+00
   1.981971153067291E+00   2.006901281171084E+00   2.032144991683132E+00
   2.057706228984562E+00   2.083588987070705E+00   2.109797310175172E+00
   2.136335293401772E+00   2.163207083364374E+00   2.190416878834829E+00
   2.217968931399041E+00   2.245867546121275E+00   2.274117082216846E+00
   2.302721953733240E+00   2.331686630239828E+00   2.361015637526246E+00
   2.390713558309547E+00   2.420785032950282E+00   2.451234760177541E+00
   2.482067497823153E+00   2.513288063565105E+00   2.544901335680312E+00
   2.576912253806863E+00   2.609325819715840E+00   2.642147098092863E+00
   2.675381217329452E+00   2.709033370324352E+00   2.743108815294939E+00
   2.777612876598814E+00   2.812550945565754E+00   2.847928481340119E+00
   2.883751011733846E+00   2.920024134090196E+00   2.956753516158333E+00
   2.993944896978931E+00   3.031604087780911E+00   3.069736972889450E+00
   3.108349510645434E+00   3.147447734336443E+00   3.187037753139474E+00
   3.227125753075512E+00   3.267717997976103E+00   3.308820830462104E+00
   3.350440672934714E+00   3.392584028578995E+00   3.435257482380007E+00
   3.478467702151722E+00   3.522221439578900E+00   3.566525531272028E+00
   3.611386899835569E+00   3.656812554949633E+00   3.702809594465247E+00
   3.749385205513426E+00   3.796546665628148E+00   3.844301343883509E+00
   3.892656702045144E+00   3.941620295736142E+00   3.991199775617641E+00
   4.041402888584239E+00   4.092237478974476E+00   4.143711489796526E+00
   4.195832963969298E+00   4.248610045579182E+00   4.302050981152553E+00
   4.356164120944321E+00   4.410957920242669E+00   4.466440940690216E+00
   4.522621851621794E+00   4.579509431419034E+00   4.637112568882017E+00
   4.695440264618167E+00   4.754501632448607E+00   4.814305900832229E+00
   4.874862414307639E+00   4.936180634953268E+00   4.998270143865846E+00
   5.061140642657459E+00   5.124801954971462E+00   5.189264028017420E+00
   5.254536934125395E+00   5.320630872319765E+00   5.387556169912839E+00
   5.455323284118534E+00   5.523942803686315E+00   5.593425450555720E+00
   5.663782081531687E+00   5.735023689980943E+00   5.807161407549759E+00
   5.880206505903267E+00   5.954170398486695E+00   6.029064642308740E+00
   6.104900939747369E+00   6.181691140378356E+00   6.259447242826775E+00
   6.338181396641830E+00   6.417905904195242E+00   6.498633222603508E+00
   6.580375965674384E+00   6.663146905877775E+00   6.746958976341488E+00
   6.831825272872049E+00   6.917759056000945E+00   7.004773753056639E+00
   7.092882960262570E+00   7.182100444861626E+00   7.272440147267289E+00
   7.363916183241849E+00   7.456542846102050E+00   7.550334608952411E+00
   7.645306126946694E+00   7.741472239577810E+00   7.838847972996500E+00
   7.937448542359239E+00   8.037289354205583E+00   8.138386008865519E+00
   8.240754302897010E+00   8.344410231554269E+00   8.449369991287050E+00
   8.555649982271346E+00   8.663266810971978E+00   8.772237292737374E+00
   8.882578454427010E+00   8.994307537071906E+00   9.107441998568529E+00
   9.221999516406663E+00   9.337997990431541E+00   9.455455545640717E+00
   9.574390535016184E+00   9.694821542391994E+00   9.816767385358073E+00
   9.940247118200480E+00   1.006528003487869E+01   1.019188567204033E+01
   1.032008381207377E+01   1.044989448619923E+01   1.058133797759863E+01
   1.071443482458492E+01   1.084920582381125E+01   1.098567203352043E+01
   1.112385477683537E+01   1.126377564509085E+01   1.140545650120720E+01
   1.154891948310645E+01   1.169418700717139E+01   1.184128177174822E+01
   1.199022676069315E+01   1.214104524696374E+01   1.229376079625532E+01
   1.244839727068317E+01   1.260497883251103E+01   1.276352994792649E+01
   1.292407539086391E+01   1.308664024687540E+01   1.325124991705044E+01
   1.341793012198490E+01   1.358670690579991E+01   1.375760664021131E+01