<UPF version="2.0.1">
  <PP_INFO>
    Generated using "atomic" code by A. Dal Corso  v.7.2
    Author: ADC
    Generation date: 31May2024
    Pseudopotential type: USPP
    Element:  N
    Functional: PBE
    Suggested minimum cutoff for wavefunctions:  44. Ry
    Suggested minimum cutoff for charge density: 320. Ry
    The Pseudo was generated with a Scalar-Relativistic Calculation
    Local Potential by smoothing AE potential with Bessel fncs, cutoff radius:   1.2000
    Valence configuration: 
    nl pn  l   occ       Rcut    Rcut US       E pseu
    2S  1  0  2.00      1.000      1.300    -1.365820
    2P  2  1  3.00      0.900      1.350    -0.521109
    Generation configuration:
    2S  1  0  2.00      1.000      1.300    -1.365813
    2S  1  0  0.00      1.000      1.300     2.000000
    2P  2  1  3.00      0.900      1.350    -0.521105
    2P  2  1  0.00      0.900      1.350     0.050000
    Pseudization used: troullier-martins
    <PP_INPUTFILE>
@input
title='N',
zed=7.,
rel=1,
config='[He] 2s2 2p3',
iswitch=3,
dft='PBE'
/
@inputp
lpaw=.false.,
pseudotype=3,
file_pseudopw='N.pbe-n-rrkjus_psl.1.0.0.UPF',
author='ADC',
lloc=-1,
rcloc=1.2
which_augfun='PSQ',
rmatch_augfun_nc=.true.,
nlcc=.true.,
new_core_ps=.true.,
rcore=0.7,
tm=.true.
/
4
2S  1  0  2.00  0.00  1.00  1.30  0.0
2S  1  0  0.00  2.00  1.00  1.30  0.0
2P  2  1  3.00  0.00  0.90  1.35  0.0
2P  2  1  0.00  0.05  0.90  1.35  0.0
    </PP_INPUTFILE>
  </PP_INFO>
    <!-- END OF HUMAN READABLE SECTION -->
  <PP_HEADER generated="Generated using 'atomic' code by A. Dal Corso  v.7.2" author="ADC" date="31May2024" comment="" element=" N" pseudo_type="USPP" relativistic="scalar" is_ultrasoft="true" is_paw="false" is_coulomb="false" has_so="false" has_wfc="false" has_gipaw="false" paw_as_gipaw="false" core_correction="true" functional="PBE" z_valence="5.00000000000000" total_psenergy="-19.8482822859329" wfc_cutoff="43.9165170831579" rho_cutoff="320.270808061116" l_max="1" l_max_rho="2" l_local="-1" mesh_size="1085" number_of_wfc="2" number_of_proj="4"/>
  <PP_MESH mesh="1085" dx="1.250000000000000E-002" xmin="-7.00000000000000" rmax="100.000000000000" zmesh="7.00000000000000">
    <PP_R>
   1.302688522220738E-04   1.319074326670032E-04   1.335666239166546E-04
   1.352466852230363E-04   1.369478790991457E-04   1.386704713599870E-04
   1.404147311641055E-04   1.421809310556445E-04   1.439693470069301E-04
   1.457802584615935E-04   1.476139483782339E-04   1.494707032746312E-04
   1.513508132725157E-04   1.532545721428995E-04   1.551822773519797E-04
   1.571342301076169E-04   1.591107354064005E-04   1.611121020813046E-04
   1.631386428499439E-04   1.651906743634368E-04   1.672685172558821E-04
   1.693724961944590E-04   1.715029399301573E-04   1.736601813491449E-04
   1.758445575247830E-04   1.780564097702928E-04   1.802960836920878E-04
   1.825639292437749E-04   1.848603007808354E-04   1.871855571159943E-04
   1.895400615752845E-04   1.919241820548181E-04   1.943382910782705E-04
   1.967827658550881E-04   1.992579883394284E-04   2.017643452898402E-04
   2.043022283296963E-04   2.068720340083851E-04   2.094741638632718E-04
   2.121090244824410E-04   2.147770275682246E-04   2.174785900015331E-04
   2.202141339069929E-04   2.229840867189046E-04   2.257888812480310E-04
   2.286289557492235E-04   2.315047539899009E-04   2.344167253193894E-04
   2.373653247391334E-04   2.403510129737916E-04   2.433742565432248E-04
   2.464355278353917E-04   2.495353051801600E-04   2.526740729240458E-04
   2.558523215058957E-04   2.590705475335164E-04   2.623292538612724E-04
   2.656289496686573E-04   2.689701505398539E-04   2.723533785442966E-04
   2.757791623182442E-04   2.792480371473810E-04   2.827605450504567E-04
   2.863172348639770E-04   2.899186623279620E-04   2.935653901727799E-04
   2.972579882070756E-04   3.009970334068049E-04   3.047831100053869E-04
   3.086168095849935E-04   3.124987311689836E-04   3.164294813155024E-04
   3.204096742122576E-04   3.244399317724867E-04   3.285208837321337E-04
   3.326531677482448E-04   3.368374294986047E-04   3.410743227826248E-04
   3.453645096235005E-04   3.497086603716547E-04   3.541074538094798E-04
   3.585615772573998E-04   3.630717266812655E-04   3.676386068011000E-04
   3.722629312012141E-04   3.769454224417031E-04   3.816868121713501E-04
   3.864878412419467E-04   3.913492598240526E-04   3.962718275242126E-04
   4.012563135036447E-04   4.063034965984240E-04   4.114141654411776E-04
   4.165891185843097E-04   4.218291646247781E-04   4.271351223304372E-04
   4.325078207679736E-04   4.379480994324490E-04   4.434568083784727E-04
   4.490348083530257E-04   4.546829709299524E-04   4.604021786461466E-04
   4.661933251394498E-04   4.720573152882831E-04   4.779950653530388E-04
   4.840075031192445E-04   4.900955680425335E-04   4.962602113954362E-04
   5.025023964160183E-04   5.088230984583899E-04   5.152233051451044E-04
   5.217040165214777E-04   5.282662452118475E-04   5.349110165777972E-04
   5.416393688783725E-04   5.484523534323091E-04   5.553510347823044E-04
   5.623364908613548E-04   5.694098131611843E-04   5.765721069027940E-04
   5.838244912091524E-04   5.911680992800623E-04   5.986040785692256E-04
   6.061335909635343E-04   6.137578129646199E-04   6.214779358726813E-04
   6.292951659726294E-04   6.372107247225717E-04   6.452258489446667E-04
   6.533417910183819E-04   6.615598190761780E-04   6.698812172016587E-04
   6.783072856302111E-04   6.868393409521700E-04   6.954787163185376E-04
   7.042267616492931E-04   7.130848438443167E-04   7.220543469969734E-04
   7.311366726103794E-04   7.403332398163892E-04   7.496454855973406E-04
   7.590748650105823E-04   7.686228514158314E-04   7.782909367053899E-04
   7.880806315372531E-04   7.979934655711571E-04   8.080309877075869E-04
   8.181947663297979E-04   8.284863895488781E-04   8.389074654518931E-04
   8.494596223531563E-04   8.601445090486513E-04   8.709637950736626E-04
   8.819191709636438E-04   8.930123485183659E-04   9.042450610693924E-04
   9.156190637509119E-04   9.271361337739838E-04   9.387980707042312E-04
   9.506066967430248E-04   9.625638570122096E-04   9.746714198424039E-04
   9.869312770649332E-04   9.993453443074309E-04   1.011915561293160E-03
   1.024643892144100E-03   1.037532325687842E-03   1.050582875768348E-03
   1.063797581560621E-03   1.077178507889324E-03   1.090727745551423E-03
   1.104447411642867E-03   1.118339649889396E-03   1.132406630981500E-03
   1.146650552913594E-03   1.161073641327459E-03   1.175678149860004E-03
   1.190466360495401E-03   1.205440583921648E-03   1.220603159891620E-03
   1.235956457588662E-03   1.251502875996775E-03   1.267244844275466E-03
   1.283184822139304E-03   1.299325300242259E-03   1.315668800566877E-03
   1.332217876818332E-03   1.348975114823459E-03   1.365943132934788E-03
   1.383124582439669E-03   1.400522147974547E-03   1.418138547944430E-03
   1.435976534947655E-03   1.454038896205982E-03   1.472328454000106E-03
   1.490848066110644E-03   1.509600626264665E-03   1.528589064587847E-03
   1.547816348062309E-03   1.567285480990211E-03   1.586999505463187E-03
   1.606961501837666E-03   1.627174589216197E-03   1.647641925934805E-03
   1.668366710056492E-03   1.689352179870945E-03   1.710601614400517E-03
   1.732118333912586E-03   1.753905700438350E-03   1.775967118298155E-03
   1.798306034633428E-03   1.820925939945296E-03   1.843830368639982E-03
   1.867022899581070E-03   1.890507156648704E-03   1.914286809305832E-03
   1.938365573171562E-03   1.962747210601735E-03   1.987435531276804E-03
   2.012434392797103E-03   2.037747701285608E-03   2.063379411998269E-03
   2.089333529942032E-03   2.115614110500630E-03   2.142225260068243E-03
   2.169171136691135E-03   2.196455950717348E-03   2.224083965454584E-03
   2.252059497836357E-03   2.280386919096516E-03   2.309070655452268E-03
   2.338115188795775E-03   2.367525057394465E-03   2.397304856600139E-03
   2.427459239567009E-03   2.457992917978769E-03   2.488910662784788E-03
   2.520217304945595E-03   2.551917736187722E-03   2.584016909768043E-03
   2.616519841247740E-03   2.649431609275984E-03   2.682757356383487E-03
   2.716502289786037E-03   2.750671682198133E-03   2.785270872656856E-03
   2.820305267356112E-03   2.855780340491347E-03   2.891701635114913E-03
   2.928074764002180E-03   2.964905410528535E-03   3.002199329557433E-03
   3.039962348339597E-03   3.078200367423539E-03   3.116919361577539E-03
   3.156125380723206E-03   3.195824550880800E-03   3.236023075126424E-03
   3.276727234561276E-03   3.317943389293082E-03   3.359677979429872E-03
   3.401937526086269E-03   3.444728632402411E-03   3.488057984575719E-03
   3.531932352905629E-03   3.576358592851450E-03   3.621343646103563E-03
   3.666894541668062E-03   3.713018396965050E-03   3.759722418940759E-03
   3.807013905193641E-03   3.854900245114641E-03   3.903388921041796E-03
   3.952487509429369E-03   4.002203682031689E-03   4.052545207101872E-03
   4.103519950605633E-03   4.155135877450354E-03   4.207401052729613E-03
   4.260323642983387E-03   4.313911917474072E-03   4.368174249478585E-03
   4.423119117596699E-03   4.478755107075841E-03   4.535090911152564E-03
   4.592135332410867E-03   4.649897284157633E-03   4.708385791815338E-03
   4.767609994332297E-03   4.827579145610651E-03   4.888302615952291E-03
   4.949789893523003E-03   5.012050585835005E-03   5.075094421248138E-03
   5.138931250489953E-03   5.203571048194891E-03   5.269023914462859E-03
   5.335300076437374E-03   5.402409889903583E-03   5.470363840906380E-03
   5.539172547388858E-03   5.608846760851403E-03   5.679397368031617E-03
   5.750835392605408E-03   5.823171996909461E-03   5.896418483685364E-03
   5.970586297845702E-03   6.045687028262331E-03   6.121732409577169E-03
   6.198734324035768E-03   6.276704803343918E-03   6.355656030547646E-03
   6.435600341936832E-03   6.516550228972772E-03   6.598518340240017E-03
   6.681517483422711E-03   6.765560627305847E-03   6.850660903801639E-03
   6.936831610001424E-03   7.024086210253369E-03   7.112438338266277E-03
   7.201901799239911E-03   7.292490572022059E-03   7.384218811292770E-03
   7.477100849776058E-03   7.571151200479404E-03   7.666384558961447E-03
   7.762815805628214E-03   7.860460008058175E-03   7.959332423356632E-03
   8.059448500539624E-03   8.160823882947898E-03   8.263474410691212E-03
   8.367416123123361E-03   8.472665261348393E-03   8.579238270758282E-03
   8.687151803602567E-03   8.796422721590319E-03   8.907068098524776E-03
   9.019105222971200E-03   9.132551600958229E-03   9.247424958713222E-03
   9.363743245432052E-03   9.481524636083658E-03   9.600787534249968E-03
   9.721550575001460E-03   9.843832627808941E-03   9.967652799491952E-03
   1.009303043720423E-02   1.021998513145675E-02   1.034853671917879E-02
   1.047870528681745E-02   1.061051117347627E-02   1.074397497409320E-02
   1.087911754265862E-02   1.101595999547382E-02   1.115452371445045E-02
   1.129483035045153E-02   1.143690182667436E-02   1.158076034207618E-02
   1.172642837484269E-02   1.187392868590037E-02   1.202328432247292E-02
   1.217451862168241E-02   1.232765521419579E-02   1.248271802791720E-02
   1.263973129172676E-02   1.279871953926639E-02   1.295970761277322E-02
   1.312272066696128E-02   1.328778417295193E-02   1.345492392225381E-02
   1.362416603079281E-02   1.379553694299269E-02   1.396906343590716E-02
   1.414477262340376E-02   1.432269196040054E-02   1.450284924715587E-02
   1.468527263361234E-02   1.486999062379524E-02   1.505703208026634E-02
   1.524642622863374E-02   1.543820266211847E-02   1.563239134617842E-02
   1.582902262319056E-02   1.602812721719197E-02   1.622973623868054E-02
   1.643388118947606E-02   1.664059396764242E-02   1.684990687247179E-02
   1.706185260953138E-02   1.727646429577381E-02   1.749377546471171E-02
   1.771382007165732E-02   1.793663249902818E-02   1.816224756171938E-02
   1.839070051254346E-02   1.862202704773882E-02   1.885626331254717E-02
   1.909344590686149E-02   1.933361189094468E-02   1.957679879122035E-02
   1.982304460613647E-02   2.007238781210259E-02   2.032486736950195E-02
   2.058052272877904E-02   2.083939383660392E-02   2.110152114211384E-02
   2.136694560323358E-02   2.163570869307523E-02   2.190785240641836E-02
   2.218341926627186E-02   2.246245233051824E-02   2.274499519864147E-02
   2.303109201853954E-02   2.332078749342264E-02   2.361412688879808E-02
   2.391115603954322E-02   2.421192135706716E-02   2.451646983656268E-02
   2.482484906434931E-02   2.513710722530879E-02   2.545329311041407E-02
   2.577345612435298E-02   2.609764629324781E-02   2.642591427247205E-02
   2.675831135456530E-02   2.709488947724790E-02   2.743570123153631E-02
   2.778079986996051E-02   2.813023931488487E-02   2.848407416693360E-02
   2.884235971352221E-02   2.920515193749629E-02   2.957250752587895E-02
   2.994448387872827E-02   3.032113911810616E-02   3.070253209716009E-02
   3.108872240931899E-02   3.147977039760484E-02   3.187573716406141E-02
   3.227668457930156E-02   3.268267529217465E-02   3.309377273955556E-02
   3.351004115625682E-02   3.393154558506545E-02   3.435835188690604E-02
   3.479052675113154E-02   3.522813770594379E-02   3.567125312894480E-02
   3.611994225782093E-02   3.657427520116145E-02   3.703432294941309E-02
   3.750015738597248E-02   3.797185129841809E-02   3.844947838988342E-02
   3.893311329057324E-02   3.942283156942474E-02   3.991870974591534E-02
   4.042082530201899E-02   4.092925669431288E-02   4.144408336623649E-02
   4.196538576050470E-02   4.249324533167724E-02   4.302774455888603E-02
   4.356896695872276E-02   4.411699709828857E-02   4.467192060840770E-02
   4.523382419700762E-02   4.580279566266725E-02   4.637892390833569E-02
   4.696229895522346E-02   4.755301195686852E-02   4.815115521337920E-02
   4.875682218585625E-02   4.937010751099637E-02   4.999110701587935E-02
   5.061991773294126E-02   5.125663791513596E-02   5.190136705128734E-02
   5.255420588163463E-02   5.321525641357330E-02   5.388462193759386E-02
   5.456240704342129E-02   5.524871763635734E-02   5.594366095382845E-02
   5.664734558214186E-02   5.735988147345240E-02   5.808137996294275E-02
   5.881195378621980E-02   5.955171709692979E-02   6.030078548459509E-02
   6.105927599267526E-02   6.182730713685534E-02   6.260499892356421E-02
   6.339247286872572E-02   6.418985201674597E-02   6.499726095973909E-02
   6.581482585699513E-02   6.664267445469264E-02   6.748093610585927E-02
   6.832974179058346E-02   6.918922413648038E-02   7.005951743941519E-02
   7.094075768448710E-02   7.183308256727730E-02   7.273663151536421E-02
   7.365154571010919E-02   7.457796810871660E-02   7.551604346657106E-02
   7.646591835985576E-02   7.742774120845533E-02   7.840166229914666E-02
   7.938783380908165E-02   8.038640982956513E-02   8.139754639013189E-02
   8.242140148292669E-02   8.345813508739086E-02   8.450790919525931E-02
   8.557088783587223E-02   8.664723710180480E-02   8.773712517481971E-02
   8.884072235214577E-02   8.995820107308718E-02   9.108973594596766E-02
   9.223550377541319E-02   9.339568358997821E-02   9.457045667011918E-02
   9.576000657651994E-02   9.696451917877351E-02   9.818418268442464E-02
   9.941918766837746E-02   1.006697271026734E-01   1.019359963866433E-01
   1.032181933774389E-01   1.045165184209489E-01   1.058311743831026E-01
   1.071623666815689E-01   1.085103033178527E-01   1.098751949097958E-01
   1.112572547244865E-01   1.126566987115824E-01   1.140737455370539E-01
   1.155086166173504E-01   1.169615361539974E-01   1.184327311686287E-01
   1.199224315384582E-01   1.214308700321998E-01   1.229582823464369E-01
   1.245049071424512E-01   1.260709860835137E-01   1.276567638726452E-01
   1.292624882908514E-01   1.308884102358397E-01   1.325347837612219E-01
   1.342018661162109E-01   1.358899177858163E-01   1.375992025315460E-01
   1.393299874326190E-01   1.410825429276974E-01   1.428571428571429E-01
   1.446540645058050E-01   1.464735886463470E-01   1.483159995831179E-01
   1.501815851965749E-01   1.520706369882657E-01   1.539834501263760E-01
   1.559203234918503E-01   1.578815597250926E-01   1.598674652732544E-01
   1.618783504381181E-01   1.639145294245818E-01   1.659763203897548E-01
   1.680640454926701E-01   1.701780309446226E-01   1.723186070601402E-01
   1.744861083085958E-01   1.766808733664693E-01   1.789032451702664E-01
   1.811535709701028E-01   1.834322023839632E-01   1.857394954526417E-01
   1.880758106953746E-01   1.904415131661719E-01   1.928369725108577E-01
   1.952625630248281E-01   1.977186637115360E-01   2.002056583417105E-01
   2.027239355133225E-01   2.052738887123036E-01   2.078559163740288E-01
   2.104704219455737E-01   2.131178139487530E-01   2.157985060439533E-01
   2.185129170947685E-01   2.212614712334477E-01   2.240445979271670E-01
   2.268627320451349E-01   2.297163139265405E-01   2.326057894493587E-01
   2.355316101000184E-01   2.384942330439491E-01   2.414941211970132E-01
   2.445317432978379E-01   2.476075739810566E-01   2.507220938514713E-01
   2.538757895591485E-01   2.570691538754585E-01   2.603026857700728E-01
   2.635768904889287E-01   2.668922796331747E-01   2.702493712391100E-01
   2.736486898591281E-01   2.770907666436793E-01   2.805761394242640E-01
   2.841053527974704E-01   2.876789582100682E-01   2.912975140451737E-01
   2.949615857094982E-01   2.986717457216938E-01   3.024285738018108E-01
   3.062326569618800E-01   3.100845895976348E-01   3.139849735813861E-01
   3.179344183560670E-01   3.219335410304585E-01   3.259829664756149E-01
   3.300833274225007E-01   3.342352645608560E-01   3.384394266393059E-01
   3.426964705667284E-01   3.470070615148985E-01   3.513718730224215E-01
   3.557915870999760E-01   3.602668943368785E-01   3.647984940089897E-01
   3.693870941879782E-01   3.740334118519574E-01   3.787381729975154E-01
   3.835021127531530E-01   3.883259754941495E-01   3.932105149588722E-01
   3.981564943665502E-01   4.031646865365288E-01   4.082358740090236E-01
   4.133708491673946E-01   4.185704143619575E-01   4.238353820353526E-01
   4.291665748494907E-01   4.345648258140950E-01   4.400309784168618E-01
   4.455658867552562E-01   4.511704156699670E-01   4.568454408800396E-01
   4.625918491197089E-01   4.684105382769536E-01   4.743024175337927E-01
   4.802684075083472E-01   4.863094403986887E-01   4.924264601284966E-01
   4.986204224945490E-01   5.048922953160673E-01   5.112430585859401E-01
   5.176737046238491E-01   5.241852382313209E-01   5.307786768487294E-01
   5.374550507142731E-01   5.442154030249517E-01   5.510607900995680E-01
   5.579922815437791E-01   5.650109604172255E-01   5.721179234027609E-01
   5.793142809778109E-01   5.866011575878878E-01   5.939796918222872E-01
   6.014510365919946E-01   6.090163593098313E-01   6.166768420728638E-01
   6.244336818471086E-01   6.322880906545623E-01   6.402412957625810E-01
   6.482945398756436E-01   6.564490813295273E-01   6.647061942879248E-01
   6.730671689415348E-01   6.815333117096579E-01   6.901059454443258E-01
   6.987864096370010E-01   7.075760606278739E-01   7.164762718177945E-01
   7.254884338828690E-01   7.346139549917554E-01   7.438542610256931E-01
   7.532107958012991E-01   7.626850212961684E-01   7.722784178773099E-01
   7.819924845324574E-01   7.918287391042894E-01   8.017887185275943E-01
   8.118739790694208E-01   8.220860965722476E-01   8.324266667002108E-01
   8.428973051884314E-01   8.534996480954753E-01   8.642353520589927E-01
   8.751060945545699E-01   8.861135741578383E-01   8.972595108098810E-01
   9.085456460859765E-01   9.199737434677232E-01   9.315455886185878E-01
   9.432629896629185E-01   9.551277774684676E-01   9.671418059324685E-01
   9.793069522713117E-01   9.916251173138626E-01   1.004098225798471E+00
   1.016728226673714E+00   1.029517093402925E+00   1.042466824272548E+00
   1.055579442704379E+00   1.068856997571726E+00   1.082301563519550E+00
   1.095915241288633E+00   1.109700158043825E+00   1.123658467706414E+00
   1.137792351290682E+00   1.152104017244696E+00   1.166595701795379E+00
   1.181269669297925E+00   1.196128212589610E+00   1.211173653348054E+00
   1.226408342453985E+00   1.241834660358573E+00   1.257455017455373E+00
   1.273271854456963E+00   1.289287642776304E+00   1.305504884912904E+00
   1.321926114843843E+00   1.338553898419705E+00   1.355390833765504E+00
   1.372439551686644E+00   1.389702716079984E+00   1.407183024350084E+00
   1.424883207830675E+00   1.442806032211437E+00   1.460954297970144E+00
   1.479330840810242E+00   1.497938532103940E+00   1.516780279340859E+00
   1.535859026582337E+00   1.555177754921449E+00   1.574739482948801E+00
   1.594547267224196E+00   1.614604202754227E+00   1.634913423475875E+00
   1.655478102746200E+00   1.676301453838173E+00   1.697386730442772E+00
   1.718737227177363E+00   1.740356280100497E+00   1.762247267233180E+00
   1.784413609086688E+00   1.806858769197033E+00   1.829586254666149E+00
   1.852599616709877E+00   1.875902451212861E+00   1.899498399290398E+00
   1.923391147857385E+00   1.947584430204395E+00   1.972082026581015E+00
   1.996887764786520E+00   2.022005520767972E+00   2.047439219225848E+00
   2.073192834227275E+00   2.099270389826993E+00   2.125675960696121E+00
   2.152413672758827E+00   2.179487703837024E+00   2.206902284303147E+00
   2.234661697741168E+00   2.262770281615918E+00   2.291232427950811E+00
   2.320052584014121E+00   2.349235253013866E+00   2.378784994801450E+00
   2.408706426584149E+00   2.439004223646552E+00   2.469683120081093E+00
   2.500747909527756E+00   2.532203445923093E+00   2.564054644258664E+00
   2.596306481349010E+00   2.628963996609293E+00   2.662032292842717E+00
   2.695516537037842E+00   2.729421961175951E+00   2.763753863048545E+00
   2.798517607085143E+00   2.833718625191476E+00   2.869362417598239E+00
   2.905454553720517E+00   2.942000673028005E+00   2.979006485926202E+00
   3.016477774648661E+00   3.054420394160479E+00   3.092840273073153E+00
   3.131743414570924E+00   3.171135897348807E+00   3.211023876562375E+00
   3.251413584789534E+00   3.292311333004370E+00   3.333723511563246E+00
   3.375656591203318E+00   3.418117124053593E+00   3.461111744658713E+00
   3.504647171015623E+00   3.548730205623264E+00   3.593367736545482E+00
   3.638566738487299E+00   3.684334273884725E+00   3.730677494008283E+00
   3.777603640080400E+00   3.825120044406876E+00   3.873234131522558E+00
   3.921953419351445E+00   3.971285520381383E+00   4.021238142853522E+00
   4.071819091966757E+00   4.123036271097290E+00   4.174897683033564E+00
   4.227411431226710E+00   4.280585721056718E+00   4.334428861114562E+00
   4.388949264500419E+00   4.444155450138239E+00   4.500056044106850E+00
   4.556659780987788E+00   4.613975505230099E+00   4.672012172532311E+00
   4.730778851241761E+00   4.790284723771564E+00   4.850539088035367E+00
   4.911551358900171E+00   4.973331069657435E+00   5.035887873512651E+00
   5.099231545093700E+00   5.163371981978136E+00   5.228319206239716E+00
   5.294083366014370E+00   5.360674737085859E+00   5.428103724491398E+00
   5.496380864147450E+00   5.565516824495998E+00   5.635522408171508E+00
   5.706408553688851E+00   5.778186337152488E+00   5.850866973987118E+00
   5.924461820690111E+00   5.998982376606001E+00   6.074440285723258E+00
   6.150847338493706E+00   6.228215473674790E+00   6.306556780195036E+00
   6.385883499042980E+00   6.466208025179826E+00   6.547542909476213E+00
   6.629900860673286E+00   6.713294747368472E+00   6.797737600026243E+00
   6.883242613014120E+00   6.969823146664348E+00   7.057492729361459E+00
   7.146265059656110E+00   7.236154008405523E+00   7.327173620940818E+00
   7.419338119261639E+00   7.512661904258353E+00   7.607159557962235E+00
   7.702845845823938E+00   7.799735719020612E+00   7.897844316792062E+00
   7.997186968806308E+00   8.097779197554832E+00   8.199636720778035E+00
   8.302775453921148E+00   8.407211512621059E+00   8.512961215224427E+00
   8.620041085337428E+00   8.728467854407624E+00   8.838258464338278E+00
   8.949430070135552E+00   9.062000042589050E+00   9.175985970985986E+00
   9.291405665859573E+00   9.408277161771965E+00   9.526618720132173E+00
   9.646448832049449E+00   9.767786221222593E+00   9.890649846865520E+00
   1.001505890666970E+01   1.014103283980385E+01   1.026859132995130E+01
   1.039775430838567E+01   1.052854195708512E+01   1.066097471188585E+01
   1.079507326567524E+01   1.093085857162513E+01   1.106835184646584E+01
   1.120757457380131E+01   1.134854850746592E+01   1.149129567492362E+01
   1.163583838070973E+01   1.178219920991615E+01   1.193040103172018E+01
   1.208046700295801E+01   1.223242057174295E+01   1.238628548112927E+01
   1.254208577282212E+01   1.269984579093405E+01   1.285959018578884E+01
   1.302134391777321E+01   1.318513226123684E+01   1.335098080844167E+01
   1.351891547356059E+01   1.368896249672671E+01   1.386114844813335E+01
   1.403550023218572E+01   1.421204509170484E+01   1.439081061218416E+01
   1.457182472609997E+01   1.475511571727584E+01   1.494071222530203E+01
   1.512864325001056E+01   1.531893815600637E+01   1.551162667725567E+01
   1.570673892173194E+01   1.590430537612034E+01   1.610435691058132E+01
   1.630692478357415E+01   1.651204064674111E+01   1.671973654985313E+01
   1.693004494581762E+01   1.714299869574935E+01   1.735863107410499E+01
   1.757697577388238E+01   1.779806691188507E+01   1.802193903405317E+01
   1.824862712086128E+01   1.847816659278414E+01   1.871059331583124E+01
   1.894594360715095E+01   1.918425424070508E+01   1.942556245301500E+01
   1.966990594897982E+01   1.991732290776790E+01   2.016785198878243E+01
   2.042153233770200E+01   2.067840359259728E+01   2.093850589012445E+01
   2.120187987179668E+01   2.146856669033443E+01   2.173860801609566E+01
   2.201204604358697E+01   2.228892349805644E+01   2.256928364216966E+01
   2.285317028276953E+01   2.314062777772119E+01   2.343170104284312E+01
   2.372643555892516E+01   2.402487737883508E+01   2.432707313471445E+01
   2.463307004526490E+01   2.494291592312633E+01   2.525665918234749E+01
   2.557434884595098E+01   2.589603455359305E+01   2.622176656932000E+01
   2.655159578942202E+01   2.688557375038578E+01   2.722375263694716E+01
   2.756618529024523E+01   2.791292521607871E+01   2.826402659326651E+01
   2.861954428211312E+01   2.897953383298072E+01   2.934405149496905E+01
   2.971315422470438E+01   3.008689969523922E+01   3.046534630506372E+01
   3.084855318723061E+01   3.123658021859488E+01   3.162948802916960E+01
   3.202733801159958E+01   3.243019233075402E+01   3.283811393343986E+01
   3.325116655823747E+01   3.366941474545980E+01   3.409292384723710E+01
   3.452176003772811E+01   3.495599032346009E+01   3.539568255379861E+01
   3.584090543154922E+01   3.629172852369243E+01   3.674822227225356E+01
   3.721045800530958E+01   3.767850794813418E+01   3.815244523448316E+01
   3.863234391802182E+01   3.911827898389579E+01   3.961032636044774E+01
   4.010856293108136E+01   4.061306654627442E+01   4.112391603574330E+01
   4.164119122076003E+01   4.216497292662465E+01   4.269534299529437E+01
   4.323238429817140E+01   4.377618074905205E+01   4.432681731723806E+01
   4.488438004081350E+01   4.544895604008830E+01   4.602063353121093E+01
   4.659950183995257E+01   4.718565141566413E+01   4.777917384540933E+01
   4.838016186827537E+01   4.898870938986348E+01   4.960491149696211E+01
   5.022886447240411E+01   5.086066581011135E+01   5.150041423032825E+01
   5.214820969504699E+01   5.280415342362699E+01   5.346834790861031E+01
   5.414089693173656E+01   5.482190558015889E+01   5.551148026286411E+01
   5.620972872729944E+01   5.691676007620799E+01   5.763268478467650E+01
   5.835761471739722E+01   5.909166314614697E+01   5.983494476748628E+01
   6.058757572068065E+01   6.134967360584776E+01   6.212135750233266E+01
   6.290274798731413E+01   6.369396715464531E+01   6.449513863393079E+01
   6.530638760984419E+01   6.612784084168851E+01   6.695962668320243E+01
   6.780187510261607E+01   6.865471770295848E+01   6.951828774262108E+01
   7.039272015617954E+01   7.127815157547744E+01   7.217472035097558E+01
   7.308256657336918E+01   7.400183209547750E+01   7.493266055440863E+01
   7.587519739400302E+01   7.682958988755956E+01   7.779598716084706E+01
   7.877454021540561E+01   7.976540195214086E+01   8.076872719521502E+01
   8.178467271623877E+01   8.281339725876663E+01   8.385506156310134E+01
   8.490982839140975E+01   8.597786255315461E+01   8.705933093084681E+01
   8.815440250612052E+01   8.926324838613735E+01   9.038604183032201E+01
   9.152295827743441E+01   9.267417537298263E+01   9.383987299697996E+01
   9.502023329205177E+01   9.621544069189564E+01   9.742568195009936E+01
   9.865114616932196E+01   9.989202483084082E+01
    </PP_R>
    <PP_RAB>
   1.628360652775922E-06   1.648842908337540E-06   1.669582798958182E-06
   1.690583565287953E-06   1.711848488739321E-06   1.733380891999837E-06
   1.755184139551319E-06   1.777261638195556E-06   1.799616837586626E-06
   1.822253230769919E-06   1.845174354727923E-06   1.868383790932890E-06
   1.891885165906447E-06   1.915682151786244E-06   1.939778466899746E-06
   1.964177876345211E-06   1.988884192580006E-06   2.013901276016308E-06
   2.039233035624299E-06   2.064883429542960E-06   2.090856465698526E-06
   2.117156202430737E-06   2.143786749126966E-06   2.170752266864312E-06
   2.198056969059788E-06   2.225705122128660E-06   2.253701046151097E-06
   2.282049115547187E-06   2.310753759760443E-06   2.339819463949929E-06
   2.369250769691056E-06   2.399052275685227E-06   2.429228638478382E-06
   2.459784573188602E-06   2.490724854242855E-06   2.522054316123003E-06
   2.553777854121204E-06   2.585900425104814E-06   2.618427048290898E-06
   2.651362806030512E-06   2.684712844602808E-06   2.718482375019164E-06
   2.752676673837411E-06   2.787301083986308E-06   2.822361015600388E-06
   2.857861946865294E-06   2.893809424873762E-06   2.930209066492368E-06
   2.967066559239168E-06   3.004387662172395E-06   3.042178206790311E-06
   3.080444097942397E-06   3.119191314751999E-06   3.158425911550573E-06
   3.198154018823696E-06   3.238381844168956E-06   3.279115673265906E-06