<UPF version="2.0.1">
  <PP_INFO>
    Generated using "atomic" code by A. Dal Corso  v.7.2
    Author: ADC
    Generation date: 31May2024
    Pseudopotential type: USPP
    Element: Nb
    Functional: PBE
    Suggested minimum cutoff for wavefunctions:  47. Ry
    Suggested minimum cutoff for charge density: 266. Ry
    The Pseudo was generated with a Scalar-Relativistic Calculation
    Local Potential by smoothing AE potential with Bessel fncs, cutoff radius:   1.5000
    Valence configuration: 
    nl pn  l   occ       Rcut    Rcut US       E pseu
    4S  1  0  2.00      1.100      1.150    -4.470841
    5S  2  0  2.00      1.100      1.150    -0.344212
    4P  2  1  6.00      1.100      1.500    -2.705881
    5P  3  1  0.00      1.100      1.500    -0.107291
    4D  3  2  3.00      1.300      1.700    -0.340644
    Generation configuration:
    4S  1  0  2.00      1.100      1.150    -4.470891
    5S  2  0  2.00      1.100      1.150    -0.344225
    4P  2  1  6.00      1.100      1.500    -2.705921
    5P  3  1  0.00      1.100      1.500    -0.107298
    4D  3  2  3.00      1.300      1.700    -0.340671
    4D  3  2  0.00      1.300      1.700     1.000000
    Pseudization used: troullier-martins
    <PP_INPUTFILE>
@input
title='Nb',
zed=41.,
rel=1,
config='[Kr] 5s2 5p0 4d3',
iswitch=3,
dft='PBE'
/
@inputp
lpaw=.false.,
pseudotype=3,
file_pseudopw='Nb.pbe-spn-rrkjus_psl.1.0.0.UPF',
author='ADC',
lloc=-1,
rcloc=1.5,
which_augfun='PSQ',
rmatch_augfun_nc=.true.,
nlcc=.true.,
new_core_ps=.true.,
rcore=1.2,
tm=.true.
/
6
4S  1  0  2.00  0.00  1.10  1.15  0.0
5S  2  0  2.00  0.00  1.10  1.15  0.0
4P  2  1  6.00  0.00  1.10  1.50  0.0
5P  3  1  0.00  0.00  1.10  1.50  0.0
4D  3  2  3.00  0.00  1.30  1.70  0.0
4D  3  2  0.00  1.00  1.30  1.70  0.0
    </PP_INPUTFILE>
  </PP_INFO>
    <!-- END OF HUMAN READABLE SECTION -->
  <PP_HEADER generated="Generated using 'atomic' code by A. Dal Corso  v.7.2" author="ADC" date="31May2024" comment="" element="Nb" pseudo_type="USPP" relativistic="scalar" is_ultrasoft="true" is_paw="false" is_coulomb="false" has_so="false" has_wfc="false" has_gipaw="false" paw_as_gipaw="false" core_correction="true" functional="PBE" z_valence="13.0000000000000" total_psenergy="-117.328043024959" wfc_cutoff="46.6304347753274" rho_cutoff="265.837589049466" l_max="2" l_max_rho="4" l_local="-1" mesh_size="1227" number_of_wfc="5" number_of_proj="6"/>
  <PP_MESH mesh="1227" dx="1.250000000000000E-002" xmin="-7.00000000000000" rmax="100.000000000000" zmesh="41.0000000000000">
    <PP_R>
   2.224102355011015E-05   2.252078118704932E-05   2.280405774186786E-05
   2.309089747710376E-05   2.338134521204927E-05   2.367544632975388E-05
   2.397324678411558E-05   2.427479310706125E-05   2.458013241581733E-05
   2.488931242027206E-05   2.520238143043017E-05   2.551938836396143E-05
   2.584038275384415E-05   2.616541475610480E-05   2.649453515765507E-05
   2.682779538422727E-05   2.716524750840984E-05   2.750694425778372E-05
   2.785293902316116E-05   2.820328586692824E-05   2.855803953149206E-05
   2.891725544783446E-05   2.928098974417319E-05   2.964929925473207E-05
   3.002224152862149E-05   3.039987483883048E-05   3.078225819133206E-05
   3.116945133430303E-05   3.156151476745971E-05   3.195850975151122E-05
   3.236049831773150E-05   3.276754327765188E-05   3.317970823287546E-05
   3.359705758501505E-05   3.401965654575607E-05   3.444757114704589E-05
   3.488086825141157E-05   3.531961556240721E-05   3.576388163519276E-05
   3.621373588724602E-05   3.666924860920908E-05   3.713049097587150E-05
   3.759753505729147E-05   3.807045383005688E-05   3.854932118868822E-05
   3.903421195718450E-05   3.952520190071480E-05   4.002236773745673E-05
   4.052578715058375E-05   4.103553880040345E-05   4.155170233664815E-05
   4.207435841092055E-05   4.260358868929560E-05   4.313947586508099E-05
   4.368210367173829E-05   4.423155689596622E-05   4.478792139094895E-05
   4.535128408977076E-05   4.592173301899945E-05   4.649935731244089E-05
   4.708424722506608E-05   4.767649414711383E-05   4.827619061837065E-05
   4.888343034263022E-05   4.949830820233498E-05   5.012092027340144E-05
   5.075136384023242E-05   5.138973741091790E-05   5.203614073262702E-05
   5.269067480719402E-05   5.335344190689964E-05   5.402454559045163E-05
   5.470409071916593E-05   5.539218347335139E-05   5.608893136890088E-05
   5.679444327409058E-05   5.750882942659105E-05   5.823220145069203E-05
   5.896467237474399E-05   5.970635664881910E-05   6.045737016259411E-05
   6.121783026345850E-05   6.198785577485021E-05   6.276756701482195E-05
   6.355708581484143E-05   6.435653553882736E-05   6.516604110242563E-05
   6.598572899252748E-05   6.681572728703338E-05   6.765616567486558E-05
   6.850717547623201E-05   6.936888966314555E-05   7.024144288020105E-05
   7.112497146561385E-05   7.201961347252308E-05   7.292550869056245E-05
   7.384279866770282E-05   7.477162673236935E-05   7.571213801583679E-05
   7.666447947490684E-05   7.762879991486992E-05   7.860525001275674E-05
   7.959398234088166E-05   8.059515139068248E-05   8.160891359686030E-05
   8.263542736182224E-05   8.367485308043255E-05   8.472735316507447E-05
   8.579309207102753E-05   8.687223632216414E-05   8.796495453696904E-05
   8.907141745488643E-05   9.019179796299835E-05   9.132627112303854E-05
   9.247501419874653E-05   9.363820668356497E-05   9.481603032868610E-05
   9.600866917145082E-05   9.721630956410464E-05   9.843914020291606E-05
   9.967735215766016E-05   1.009311389014741E-04   1.022006963410873E-04
   1.034862228474327E-04   1.047879192866424E-04   1.061059890514334E-04
   1.074406380928880E-04   1.087920749526342E-04   1.101605107954309E-04
   1.115461594421628E-04   1.129492374032499E-04   1.143699639124783E-04
   1.158085609612556E-04   1.172652533332973E-04   1.187402686397503E-04
   1.202338373547574E-04   1.217461928514687E-04   1.232775714385077E-04
   1.248282123968940E-04   1.263983580174323E-04   1.279882536385703E-04
   1.295981476847336E-04   1.312282917051420E-04   1.328789404131153E-04
   1.345503517258725E-04   1.362427868048317E-04   1.379565100964173E-04
   1.396917893733801E-04   1.414488957766377E-04   1.432281038576403E-04
   1.450296916212706E-04   1.468539405692819E-04   1.487011357442838E-04
   1.505715657742807E-04   1.524655229177698E-04   1.543833031094085E-04
   1.563252060062533E-04   1.582915350345826E-04   1.602825974373078E-04
   1.622987043219798E-04   1.643401707094016E-04   1.664073155828494E-04
   1.685004619379154E-04   1.706199368329760E-04   1.727660714402956E-04
   1.749392010977731E-04   1.771396653613388E-04   1.793678080580106E-04
   1.816239773396181E-04   1.839085257372017E-04   1.862218102160966E-04
   1.885641922317090E-04   1.909360377859945E-04   1.933377174846464E-04
   1.957696065950038E-04   1.982320851046881E-04   2.007255377809763E-04
   2.032503542309222E-04   2.058069289622326E-04   2.083956614449107E-04
   2.110169561736740E-04   2.136712227311568E-04   2.163588758519087E-04
   2.190803354871982E-04   2.218360268706297E-04   2.246263805845888E-04
   2.274518326275202E-04   2.303128244820539E-04   2.332098031839881E-04
   2.361432213921386E-04   2.391135374590690E-04   2.421212155027076E-04
   2.451667254788680E-04   2.482505432546799E-04   2.513731506829449E-04
   2.545350356774270E-04   2.577366922890891E-04   2.609786207832909E-04
   2.642613277179552E-04   2.675853260227189E-04   2.709511350790806E-04
   2.743592808015528E-04   2.778102957198385E-04   2.813047190620398E-04
   2.848430968389133E-04   2.884259819291858E-04   2.920539341659420E-04
   2.957275204241000E-04   2.994473147089865E-04   3.032138982460264E-04
   3.070278595715609E-04   3.108897946248066E-04   3.148003068409725E-04
   3.187600072455486E-04   3.227695145497787E-04   3.268294552473373E-04
   3.309404637122179E-04   3.351031822978572E-04   3.393182614375032E-04
   3.435863597458469E-04   3.479081441219330E-04   3.522842898533629E-04
   3.567154807218103E-04   3.612024091098637E-04   3.657457761092123E-04
   3.703462916301938E-04   3.750046745127179E-04   3.797216526385876E-04
   3.844979630452317E-04   3.893343520408685E-04   3.942315753211189E-04
   3.991903980870836E-04   4.042115951649086E-04   4.092959511268530E-04
   4.144442604138797E-04   4.196573274597898E-04   4.249359668169150E-04
   4.302810032833942E-04   4.356932720320501E-04   4.411736187408853E-04
   4.467228997252239E-04   4.523419820715094E-04   4.580317437727905E-04
   4.637930738659087E-04   4.696268725704130E-04   4.755340514292194E-04
   4.815155334510434E-04   4.875722532546203E-04   4.937051572147412E-04
   4.999152036101283E-04   5.062033627731645E-04   5.125706172415130E-04
   5.190179619116384E-04   5.255464041942627E-04   5.321569641717750E-04
   5.388506747576206E-04   5.456285818576976E-04   5.524917445337798E-04
   5.594412351689984E-04   5.664781396354043E-04   5.736035574636368E-04
   5.808186020147287E-04   5.881244006540701E-04   5.955220949275618E-04
   6.030128407399853E-04   6.105978085356134E-04   6.182781834810962E-04
   6.260551656506447E-04   6.339299702135450E-04   6.419038276240320E-04
   6.499779838135485E-04   6.581537003854265E-04   6.664322548120138E-04
   6.748149406342824E-04   6.833030676639468E-04   6.918979621881244E-04
   7.006009671765716E-04   7.094134424915238E-04   7.183367651001778E-04
   7.273723292898466E-04   7.365215468858171E-04   7.457858474719535E-04
   7.551666786140706E-04   7.646655060861192E-04   7.742838140992183E-04
   7.840231055335626E-04   7.938849021732544E-04   8.038707449440820E-04
   8.139821941542946E-04   8.242208297384038E-04   8.345882515040496E-04
   8.450860793819762E-04   8.557159536791473E-04   8.664795353350480E-04
   8.773785061812114E-04   8.884145692040057E-04   8.995894488107321E-04
   9.109048910990639E-04   9.223626641298800E-04   9.339645582035283E-04
   9.457123861395612E-04   9.576079835599956E-04   9.696532091761297E-04
   9.818499450789720E-04   9.942000970333226E-04   1.006705594775550E-03
   1.019368392315120E-03   1.032190468239910E-03   1.045173826025370E-03
   1.058320494347570E-03   1.071632527400181E-03   1.085112005215452E-03
   1.098761033989215E-03   1.112581746409986E-03   1.126576301992198E-03
   1.140746887413634E-03   1.155095716857096E-03   1.169625032356377E-03
   1.184337104146585E-03   1.199234231018868E-03   1.214318740679608E-03
   1.229592990114131E-03   1.245059365954986E-03   1.260720284854863E-03
   1.276578193864205E-03   1.292635570813557E-03   1.308894924700735E-03
   1.325358796082866E-03   1.342029757473347E-03   1.358910413743815E-03
   1.376003402531155E-03   1.393311394649641E-03   1.410837094508256E-03
   1.428583240533257E-03   1.446552605596067E-03   1.464747997446536E-03
   1.483172259151658E-03   1.501828269539811E-03   1.520718943650571E-03
   1.539847233190205E-03   1.559216126992868E-03   1.578828651487623E-03
   1.598687871171326E-03   1.618796889087454E-03   1.639158847310970E-03
   1.659776927439274E-03   1.680654351089331E-03   1.701794380401065E-03
   1.723200318547063E-03   1.744875510248714E-03   1.766823342298817E-03
   1.789047244090784E-03   1.811550688154486E-03   1.834337190698839E-03
   1.857410312161228E-03   1.880773657763823E-03   1.904430878076906E-03
   1.928385669589285E-03   1.952641775285867E-03   1.977202985232519E-03
   2.002073137168264E-03   2.027256117104941E-03   2.052755859934400E-03
   2.078576350043338E-03   2.104721621935867E-03   2.131195760863913E-03
   2.158002903465544E-03   2.185147238411335E-03   2.212633007058842E-03
   2.240464504115340E-03   2.268646078308867E-03   2.297182133067724E-03
   2.326077127208528E-03   2.355335575632898E-03   2.384962050032929E-03
   2.414961179605520E-03   2.445337651775701E-03   2.476096212929051E-03
   2.507241669153327E-03   2.538778886989431E-03   2.570712794191814E-03
   2.603048380498444E-03   2.635790698410471E-03   2.668944863981681E-03
   2.702516057617900E-03   2.736509524886434E-03   2.770930577335702E-03
   2.805784593325181E-03   2.841077018865780E-03   2.876813368470793E-03
   2.912999226017553E-03   2.949640245619919E-03   2.986742152511755E-03
   3.024310743941493E-03   3.062351890077982E-03   3.100871534927699E-03
   3.139875697263518E-03   3.179370471565164E-03   3.219362028971469E-03
   3.259856618244645E-03   3.300860566746652E-03   3.342380281427865E-03
   3.384422249828178E-03   3.426993041090687E-03   3.470099306988137E-03
   3.513747782962276E-03   3.557945289176278E-03   3.602698731580411E-03
   3.648015102991100E-03   3.693901484183575E-03   3.740365044998256E-03
   3.787413045461049E-03   3.835052836917748E-03   3.883291863182690E-03
   3.932137661701873E-03   3.981597864730693E-03   4.031680200526502E-03
   4.082392494556160E-03   4.133742670718784E-03   4.185738752583872E-03
   4.238388864645004E-03   4.291701233589306E-03   4.345684189582890E-03
   4.400346167572460E-03   4.455695708603285E-03   4.511741461153764E-03
   4.568492182486759E-03   4.625956740017935E-03   4.684144112701321E-03
   4.743063392432282E-03   4.802723785468148E-03   4.863134613866713E-03
   4.924305316942816E-03   4.986245452743270E-03   5.048964699540309E-03
   5.112472857343850E-03   5.176779849432760E-03   5.241895723905382E-03
   5.307830655249584E-03   5.374594945932534E-03   5.442199028010485E-03
   5.510653464758803E-03   5.579968952322500E-03   5.650156321387534E-03
   5.721226538873115E-03   5.793190709645322E-03   5.866060078252249E-03
   5.939846030680995E-03   6.014560096136745E-03   6.090213948844235E-03
   6.166819409871866E-03   6.244388448978784E-03   6.322933186485162E-03
   6.402465895166033E-03   6.482999002168943E-03   6.564545090955705E-03
   6.647116903268603E-03   6.730727341121298E-03   6.815389468814815E-03
   6.901116514978852E-03   6.987921874638784E-03   7.075819111308669E-03
   7.164821959110559E-03   7.254944324920504E-03   7.346200290541517E-03
   7.438604114903886E-03   7.532170236293170E-03   7.626913274606192E-03
   7.722848033635447E-03   7.819989503382212E-03   7.918352862398776E-03
   8.017953480160104E-03   8.118806919465357E-03   8.220928938869620E-03
   8.324335495146190E-03   8.429042745779868E-03   8.535067051491598E-03
   8.642424978794850E-03   8.751133302584188E-03   8.861209008756374E-03
   8.972669296864451E-03   9.085531582805197E-03   9.199813501540416E-03
   9.315532909852415E-03   9.432707889134180E-03   9.551356748214612E-03
   9.671498026219342E-03   9.793150495467482E-03   9.916333164404859E-03
   1.004106528057411E-02   1.016736633362216E-02   1.029525605834550E-02
   1.042475443777383E-02   1.055588170629237E-02   1.068865835280364E-02
   1.082310512392878E-02   1.095924302724931E-02   1.109709333458960E-02
   1.123667758534063E-02   1.137801758982557E-02   1.152113543270768E-02
   1.166605347644108E-02   1.181279436476494E-02   1.196138102624162E-02
   1.211183667783926E-02   1.226418482855954E-02   1.241844928311096E-02
   1.257465414562840E-02   1.273282382343942E-02   1.289298303087799E-02
   1.305515679314611E-02   1.321937045022408E-02   1.338564966082992E-02
   1.355402040642857E-02   1.372450899529161E-02   1.389714206660788E-02
   1.407194659464602E-02   1.424894989296917E-02   1.442817961870281E-02
   1.460966377685624E-02   1.479343072469838E-02   1.497950917618873E-02
   1.516792820646391E-02   1.535871725638074E-02   1.555190613711643E-02
   1.574752503482664E-02   1.594560451536213E-02   1.614617552904474E-02
   1.634926941550340E-02   1.655491790857109E-02   1.676315314124323E-02
   1.697400765069859E-02   1.718751438338326E-02   1.740370670015860E-02
   1.762261838151396E-02   1.784428363284493E-02   1.806873708979800E-02
   1.829601382368249E-02   1.852614934695046E-02   1.875917961874563E-02
   1.899514105052208E-02   1.923407051173358E-02   1.947600533559457E-02
   1.972098332491348E-02   1.996904275799957E-02   2.022022239464392E-02
   2.047456148217580E-02   2.073209976159509E-02   2.099287747378191E-02
   2.125693536578434E-02   2.152431469718526E-02   2.179505724654917E-02
   2.206920531795024E-02   2.234680174758239E-02   2.262788991045252E-02
   2.291251372715795E-02   2.320071767074913E-02   2.349254677367859E-02
   2.378804663483739E-02   2.408726342668004E-02   2.439024390243904E-02
   2.469703540343012E-02   2.500768586644949E-02   2.532224383126404E-02
   2.564075844819572E-02   2.596327948580146E-02   2.628985733864956E-02
   2.662054303519396E-02   2.695538824574752E-02   2.729444529055563E-02
   2.763776714797139E-02   2.798540746273348E-02   2.833742055434838E-02
   2.869386142557783E-02   2.905478577103314E-02   2.942024998587759E-02
   2.979031117463830E-02   3.016502716012891E-02   3.054445649248451E-02
   3.092865845831024E-02   3.131769308994493E-02   3.171162117484125E-02
   3.211050426506395E-02   3.251440468690740E-02   3.292338555063423E-02
   3.333751076033651E-02   3.375684502392078E-02   3.418145386321887E-02
   3.461140362422580E-02   3.504676148746647E-02   3.548759547849273E-02
   3.593397447851258E-02   3.638596823515295E-02   3.684364737335788E-02
   3.730708340642389E-02   3.777634874717400E-02   3.825151671927243E-02
   3.873266156868156E-02   3.921985847526301E-02   3.971318356452465E-02
   4.021271391951534E-02   4.071852759286936E-02   4.123070361900225E-02
   4.174932202646012E-02   4.227446385042429E-02   4.280621114537315E-02
   4.334464699790339E-02   4.388985553971243E-02   4.444192196074414E-02
   4.500093252250002E-02   4.556697457151764E-02   4.614013655301879E-02
   4.672050802472919E-02   4.730817967087207E-02   4.790324331633775E-02
   4.850579194103153E-02   4.911591969440189E-02   4.973372191015162E-02
   5.035929512113383E-02   5.099273707443552E-02   5.163414674665063E-02
   5.228362435934537E-02   5.294127139471813E-02   5.360719061145616E-02
   5.428148606079192E-02   5.496426310276121E-02   5.565562842266596E-02
   5.635569004774402E-02   5.706455736404858E-02   5.778234113354003E-02
   5.850915351139266E-02   5.924510806351925E-02   5.999031978431587E-02
   6.074490511463004E-02   6.150898195995486E-02   6.228266970885191E-02
   6.306608925160603E-02   6.385936299911468E-02   6.466261490201483E-02
   6.547597047005052E-02   6.629955679168406E-02   6.713350255395380E-02
   6.797793806258175E-02   6.883299526233419E-02   6.969880775763818E-02
   7.057551083345762E-02   7.146324147643177E-02   7.236213839627972E-02
   7.327234204747402E-02   7.419399465118695E-02   7.512724021751299E-02
   7.607222456797058E-02   7.702909535828704E-02   7.799800210147018E-02
   7.897909619116981E-02   7.997253092533355E-02   8.097846153015974E-02
   8.199704518435197E-02   8.302844104367856E-02   8.407281026584089E-02
   8.513031603565470E-02   8.620112359054807E-02   8.728540024638001E-02
   8.838331542358399E-02   8.949504067364016E-02   9.062074970588063E-02
   9.176061841463200E-02   9.291482490669908E-02   9.408354952919454E-02
   9.526697489771839E-02   9.646528592489217E-02   9.767866984925186E-02
   9.890731626450430E-02   1.001514171491516E-01   1.014111668964880E-01
   1.026867623449747E-01   1.039784028089956E-01   1.052862901100011E-01
   1.066106286080429E-01   1.079516252337058E-01   1.093094895204407E-01
   1.106844336373050E-01   1.120766724221144E-01   1.134864234150115E-01
   1.149139068924572E-01   1.163593459016489E-01   1.178229662953727E-01
   1.193049967672929E-01   1.208056688876858E-01   1.223252171396235E-01
   1.238638789556118E-01   1.254218947546900E-01   1.269995079799964E-01
   1.285969651368072E-01   1.302145158310531E-01   1.318524128083212E-01
   1.335109119933464E-01   1.351902725300006E-01   1.368907568217844E-01
   1.386126305728280E-01   1.403561628294081E-01   1.421216260219872E-01
   1.439092960077810E-01   1.457194521138616E-01   1.475523771808036E-01
   1.494083576068778E-01   1.512876833928017E-01   1.531906481870529E-01
   1.551175493317521E-01   1.570686879091235E-01   1.590443687885394E-01
   1.610449006741568E-01   1.630705961531530E-01   1.651217717445678E-01
   1.671987479487605E-01   1.693018492974887E-01   1.714314044046170E-01
   1.735877460174634E-01   1.757712110687920E-01   1.779821407294594E-01
   1.802208804617232E-01   1.824877800732215E-01   1.847831937716305E-01
   1.871074802200106E-01   1.894610025928482E-01   1.918441286328023E-01
   1.942572307081653E-01   1.967006858710457E-01   1.991748759162843E-01
   2.016801874411091E-01   2.042170119055431E-01   2.067857456935702E-01
   2.093867901750706E-01   2.120205517685368E-01   2.146874420045759E-01
   2.173878775902132E-01   2.201222804740031E-01   2.228910779119592E-01
   2.256947025343146E-01   2.285335924131204E-01   2.314081911306959E-01
   2.343189478489392E-01   2.372663173795095E-01   2.402507602548924E-01
   2.432727428003592E-01   2.463327372068307E-01   2.494312216046586E-01
   2.525686801383340E-01   2.557456030421361E-01   2.589624867167319E-01
   2.622198338067405E-01   2.655181532792718E-01   2.688579605034538E-01
   2.722397773309603E-01   2.756641321775510E-01   2.791315601056372E-01
   2.826426029078877E-01   2.861978091918833E-01   2.897977344658392E-01
   2.934429412254034E-01   2.971339990415482E-01   3.008714846495674E-01
   3.046559820391905E-01   3.084880825458349E-01   3.123683849430010E-01
   3.162974955358327E-01   3.202760282558542E-01   3.243046047568973E-01
   3.283838545122365E-01   3.325144149129455E-01   3.366969313674903E-01
   3.409320574025766E-01   3.452204547652636E-01   3.495627935263643E-01
   3.539597521851445E-01   3.584120177753402E-01   3.629202859725084E-01
   3.674852612027266E-01   3.721076567526626E-01   3.767881948810251E-01
   3.815276069314190E-01   3.863266334466201E-01   3.911860242842848E-01
   3.961065387341182E-01   4.010889456365137E-01   4.061340235026866E-01
   4.112425606363181E-01   4.164153552567283E-01   4.216532156236012E-01
   4.269569601632754E-01   4.323274175966256E-01   4.377654270685524E-01
   4.432718382790992E-01   4.488475116162208E-01   4.544933182902199E-01
   4.602101404698754E-01   4.659988714202843E-01   4.718604156424346E-01
   4.777956890145366E-01   4.838056189351301E-01   4.898911444679921E-01
   4.960532164888688E-01   5.022927978340497E-01   5.086108634508151E-01
   5.150084005497714E-01   5.214864087591062E-01   5.280459002807821E-01
   5.346879000486945E-01   5.414134458888207E-01   5.482235886813811E-01
   5.551193925250424E-01   5.621019349031852E-01   5.691723068522615E-01
   5.763316131322739E-01   5.835809723993939E-01   5.909215173807558E-01
   5.983543950514478E-01   6.058807668137280E-01   6.135018086784970E-01
   6.212187114490511E-01   6.290326809071481E-01   6.369449380014142E-01
   6.449567190381171E-01   6.530692758743447E-01   6.612838761136075E-01
   6.696018033039052E-01   6.780243571382849E-01   6.865528536579184E-01
   6.951886254577389E-01   7.039330218946593E-01   7.127874092984134E-01
   7.217531711850480E-01   7.308317084730982E-01   7.400244397024862E-01
   7.493328012561692E-01   7.587582475845774E-01   7.683022514328769E-01
   7.779663040710857E-01   7.877519155270901E-01   7.976606148225895E-01
   8.076939502120080E-01   8.178534894244134E-01   8.281408199084772E-01
   8.385575490805171E-01   8.491053045756597E-01   8.597857345021600E-01
   8.706005076989243E-01   8.815513139962671E-01   8.926398644799515E-01
   9.038678917585511E-01   9.152371502341712E-01   9.267494163765800E-01
   9.384064890007842E-01   9.502101895480972E-01   9.621623623707453E-01
   9.742648750200477E-01   9.865196185382296E-01   9.989285077538982E-01
   1.011493481581238E+00   1.024216503322976E+00   1.037099560977142E+00
   1.050144667547706E+00   1.063353861359110E+00   1.076729206374762E+00
   1.090272792519533E+00   1.103986736006312E+00   1.117873179666671E+00
   1.131934293285683E+00   1.146172273940959E+00   1.160589346345944E+00
   1.175187763197533E+00   1.189969805528059E+00   1.204937783061713E+00
   1.220094034575433E+00   1.235440928264358E+00   1.250980862111847E+00
   1.266716264264182E+00   1.282649593409963E+00   1.298783339164284E+00
   1.315120022457746E+00   1.331662195930349E+00   1.348412444330352E+00
   1.365373384918150E+00   1.382547667875215E+00   1.399937976718201E+00
   1.417547028718245E+00   1.435377575325547E+00   1.453432402599292E+00
   1.471714331642976E+00   1.490226219045204E+00   1.508970957326047E+00
   1.527951475388997E+00   1.547170738978618E+00   1.566631751143949E+00
   1.586337552707732E+00   1.606291222741555E+00   1.626495879046956E+00
   1.646954678642589E+00   1.667670818257516E+00   1.688647534830699E+00
   1.709888106016779E+00   1.731395850698218E+00   1.753174129503880E+00
   1.775226345334138E+00   1.797555943892582E+00   1.820166414224414E+00
   1.843061289261626E+00   1.866244146375022E+00   1.889718607933193E+00
   1.913488341868516E+00   1.937557062250278E+00   1.961928529865008E+00
   1.986606552804101E+00   2.011594987058854E+00   2.036897737122958E+00
   2.062518756602587E+00   2.088462048834162E+00   2.114731667509876E+00
   2.141331717311094E+00   2.168266354549715E+00   2.195539787817607E+00
   2.223156278644206E+00   2.251120142162387E+00   2.279435747782724E+00
   2.308107519876199E+00   2.337139938465536E+00   2.366537539925206E+00
   2.396304917690245E+00   2.426446722973997E+00   2.456967665494857E+00
   2.487872514212190E+00   2.519166098071484E+00   2.550853306758884E+00
   2.582939091465218E+00   2.615428465659623E+00   2.648326505872920E+00
   2.681638352490820E+00   2.715369210557130E+00   2.749524350587054E+00
   2.784109109390708E+00   2.819128890907018E+00   2.854589167048095E+00
   2.890495478554228E+00   2.926853435859645E+00   2.963668719969145E+00
   3.000947083345772E+00   3.038694350809645E+00   3.076916420448102E+00
   3.115619264537291E+00   3.154808930475341E+00   3.194491541727286E+00
   3.234673298781870E+00   3.275360480120379E+00   3.316559443197682E+00
   3.358276625435578E+00   3.400518545228666E+00   3.443291802962854E+00
   3.486603082046683E+00   3.530459149955634E+00   3.574866859289541E+00
   3.619833148843335E+00   3.665365044691244E+00   3.711469661284625E+00
   3.758154202563629E+00   3.805425963082807E+00   3.853292329150917E+00
   3.901760779985041E+00   3.950838888879228E+00   4.000534324387850E+00
   4.050854851523807E+00   4.101808332971844E+00   4.153402730317101E+00
   4.205646105289130E+00   4.258546621021568E+00   4.312112543327621E+00
   4.366352241991630E+00   4.421274192076862E+00   4.476886975249756E+00
   4.533199281120833E+00   4.590219908602451E+00   4.647957767283662E+00
   4.706421878822356E+00   4.765621378354902E+00   4.825565515923550E+00
   4.886263657921752E+00   4.947725288557685E+00   5.009960011336180E+00
   5.072977550559283E+00   5.136787752845721E+00   5.201400588669416E+00
   5.266826153917422E+00   5.333074671467419E+00   5.400156492785053E+00
   5.468082099541393E+00   5.536862105250686E+00   5.606507256928757E+00
   5.677028436772251E+00   5.748436663858991E+00   5.820743095869748E+00
   5.893959030831629E+00   5.968095908883430E+00   6.043165314063178E+00
   6.119178976118160E+00   6.196148772337732E+00   6.274086729409145E+00
   6.353005025296756E+00   6.432915991144860E+00   6.513832113204442E+00
   6.595766034784214E+00   6.678730558226111E+00   6.762738646905713E+00
   6.847803427257793E+00   6.933938190827340E+00   7.021156396346417E+00
   7.109471671837078E+00   7.198897816740793E+00   7.289448804074648E+00
   7.381138782614631E+00   7.473982079106446E+00   7.567993200504059E+00
   7.663186836236451E+00   7.759577860502880E+00   7.857181334596989E+00
   7.956012509260196E+00   8.056086827064608E+00   8.157419924825984E+00
   8.260027636047013E+00   8.363925993391327E+00   8.469131231188653E+00
   8.575659787971434E+00   8.683528309043401E+00   8.792753649080431E+00
   8.903352874764119E+00   9.015343267448509E+00   9.128742325860296E+00
   9.243567768833071E+00   9.359837538075908E+00   9.477569800976800E+00
   9.596782953441370E+00   9.717495622767219E+00   9.839726670554525E+00
   9.963495195653184E+00   1.008882053714704E+01   1.021572227737571E+01
   1.034422024499426E+01   1.047433451807157E+01   1.060608542722753E+01
   1.073949355880973E+01   1.087457975811017E+01   1.101136513262233E+01
   1.114987105533925E+01   1.129011916809316E+01   1.143213138493700E+01
   1.157592989556860E+01   1.172153716879779E+01   1.186897595605726E+01
   1.201826929495748E+01   1.216944051288639E+01   1.232251323065437E+01
   1.247751136618498E+01   1.263445913825225E+01   1.279338107026489E+01
   1.295430199409808E+01   1.311724705397358E+01   1.328224171038852E+01
   1.344931174409364E+01   1.361848326012161E+01   1.378978269186598E+01
   1.396323680521150E+01   1.413887270271625E+01   1.431671782784657E+01
   1.449679996926508E+01   1.467914726517274E+01   1.486378820770555E+01
   1.505075164738643E+01   1.524006679763321E+01   1.543176323932327E+01
   1.562587092541563E+01   1.582242018563118E+01   1.602144173119170E+01
   1.622296665961860E+01   1.642702645959194E+01   1.663365301587062E+01
   1.684287861427448E+01   1.705473594672892E+01   1.726925811637317E+01
   1.748647864273268E+01   1.770643146695662E+01   1.792915095712130E+01
   1.815467191360017E+01   1.838302957450151E+01   1.861425962117443E+01
   1.884839818378414E+01   1.908548184695746E+01   1.932554765549908E+01
   1.956863312018000E+01   1.981477622359863E+01   2.006401542611567E+01
   2.031638967186361E+01   2.057193839483179E+01   2.083070152502811E+01
   2.109271949471809E+01   2.135803324474258E+01   2.162668423091484E+01
   2.189871443049801E+01   2.217416634876422E+01   2.245308302563612E+01
   2.273550804241191E+01   2.302148552857510E+01   2.331106016868970E+01
   2.360427720938238E+01   2.390118246641230E+01   2.420182233182991E+01
   2.450624378122588E+01   2.481449438107100E+01   2.512662229614865E+01
   2.544267629708058E+01   2.576270576794744E+01   2.608676071400520E+01
   2.641489176949844E+01   2.674715020557219E+01   2.708358793828305E+01
   2.742425753671123E+01   2.776921223117463E+01   2.811850592154606E+01
   2.847219318567527E+01   2.883032928791688E+01   2.919297018776545E+01