<UPF version="2.0.1">
  <PP_INFO>
    Generated using "atomic" code by A. Dal Corso  v.7.2
    Author: ADC
    Generation date: 31May2024
    Pseudopotential type: USPP
    Element: Se
    Functional: PBE
    Suggested minimum cutoff for wavefunctions:  22. Ry
    Suggested minimum cutoff for charge density: 117. Ry
    The Pseudo was generated with a Scalar-Relativistic Calculation
    L component and cutoff radius for Local Potential:  2   1.9000
    Valence configuration: 
    nl pn  l   occ       Rcut    Rcut US       E pseu
    4S  1  0  2.00      1.500      1.900    -1.270583
    4P  2  1  4.00      1.500      1.900    -0.478578
    Generation configuration:
    4S  1  0  2.00      1.500      1.900    -1.270580
    4S  1  0  0.00      1.500      1.900     0.300000
    4P  2  1  4.00      1.500      1.900    -0.478576
    4P  2  1  0.00      1.500      1.900     0.300000
    4D  3  2 -2.00      1.900      1.900     0.500000
    Pseudization used: troullier-martins
    <PP_INPUTFILE>
@input
title='Se',
zed=34.,
rel=1,
config='[Ar] 4s2 4p4 3d10 4d-1',
iswitch=3,
dft='PBE'
/
@inputp
lpaw=.false.,
pseudotype=3,
file_pseudopw='Se.pbe-n-rrkjus_psl.1.0.0.UPF',
author='ADC',
lloc=2,
which_augfun='PSQ',
rmatch_augfun_nc=.true.,
nlcc=.true.,
new_core_ps=.true.,
rcore=1.8,
tm=.true.
/
5
4S  1  0  2.00  0.00  1.50  1.90  0.0
4S  1  0  0.00  0.30  1.50  1.90  0.0
4P  2  1  4.00  0.00  1.50  1.90  0.0
4P  2  1  0.00  0.30  1.50  1.90  0.0
4D  3  2 -2.00  0.50  1.90  1.90  0.0
    </PP_INPUTFILE>
  </PP_INFO>
    <!-- END OF HUMAN READABLE SECTION -->
  <PP_HEADER generated="Generated using 'atomic' code by A. Dal Corso  v.7.2" author="ADC" date="31May2024" comment="" element="Se" pseudo_type="USPP" relativistic="scalar" is_ultrasoft="true" is_paw="false" is_coulomb="false" has_so="false" has_wfc="false" has_gipaw="false" paw_as_gipaw="false" core_correction="true" functional="PBE" z_valence="6.00000000000000" total_psenergy="-20.5636064371056" wfc_cutoff="22.2161735008729" rho_cutoff="117.425731684498" l_max="2" l_max_rho="4" l_local="2" mesh_size="1211" number_of_wfc="2" number_of_proj="4"/>
  <PP_MESH mesh="1211" dx="1.250000000000000E-002" xmin="-7.00000000000000" rmax="100.000000000000" zmesh="34.0000000000000">
    <PP_R>
   2.682005781042695E-05   2.715741260791242E-05   2.749901080637006E-05
   2.784490578121335E-05   2.819515157923588E-05   2.854980292705614E-05
   2.890891523966878E-05   2.927254462910327E-05   2.964074791319148E-05
   3.001358262444572E-05   3.039110701904815E-05   3.077338008595349E-05
   3.116046155610618E-05   3.155241191177343E-05   3.194929239599582E-05
   3.235116502215642E-05   3.275809258367068E-05   3.317013866379801E-05
   3.358736764557669E-05   3.400984472188405E-05   3.443763590562278E-05
   3.487080804003567E-05   3.530942880915002E-05   3.575356674835337E-05
   3.620329125510238E-05   3.665867259976616E-05   3.711978193660631E-05
   3.758669131489484E-05   3.805947369017200E-05   3.853820293564588E-05
   3.902295385373504E-05   3.951380218775667E-05   4.001082463376158E-05
   4.051409885251815E-05   4.102370348164702E-05   4.153971814790828E-05
   4.206222347964337E-05   4.259130111937340E-05   4.312703373655597E-05
   4.366950504050255E-05   4.421879979345801E-05   4.477500382384505E-05
   4.533820403967501E-05   4.590848844212742E-05   4.648594613930050E-05
   4.707066736013424E-05   4.766274346850902E-05   4.826226697752136E-05
   4.886933156393923E-05   4.948403208283945E-05   5.010646458242864E-05
   5.073672631905125E-05   5.137491577238587E-05   5.202113266083296E-05
   5.267547795709617E-05   5.333805390395927E-05   5.400896403026197E-05
   5.468831316707650E-05   5.537620746408757E-05   5.607275440617872E-05
   5.677806283022674E-05   5.749224294210786E-05   5.821540633391755E-05
   5.894766600140703E-05   5.968913636163924E-05   6.043993327086644E-05
   6.120017404263322E-05   6.196997746610689E-05   6.274946382463848E-05
   6.353875491455749E-05   6.433797406420250E-05   6.514724615319168E-05
   6.596669763193539E-05   6.679645654139432E-05   6.763665253308635E-05
   6.848741688934452E-05   6.934888254383038E-05   7.022118410230510E-05
   7.110445786366186E-05   7.199884184122303E-05   7.290447578430466E-05
   7.382150120005289E-05   7.475006137555465E-05   7.569030140022647E-05
   7.664236818848525E-05   7.760641050270358E-05   7.858257897645443E-05
   7.957102613804785E-05   8.057190643436378E-05   8.158537625498496E-05
   8.261159395663272E-05   8.365071988791081E-05   8.470291641436009E-05
   8.576834794382846E-05   8.684718095216019E-05   8.793958400920765E-05
   8.904572780517104E-05   9.016578517726892E-05   9.129993113674438E-05
   9.244834289621119E-05   9.361119989734314E-05   9.478868383891254E-05
   9.598097870518084E-05   9.718827079464653E-05   9.841074874915506E-05
   9.964860358337387E-05   1.009020287146392E-04   1.021712199931780E-04
   1.034563757327097E-04   1.047576967414332E-04   1.060753863534038E-04
   1.074096504603042E-04   1.087606975436157E-04   1.101287387071935E-04
   1.115139877102532E-04   1.129166610007695E-04   1.143369777492979E-04
   1.157751598832201E-04   1.172314321214203E-04   1.187060220093988E-04
   1.201991599548255E-04   1.217110792635423E-04   1.232420161760170E-04
   1.247922099042571E-04   1.263619026691865E-04   1.279513397384932E-04
   1.295607694649531E-04   1.311904433252354E-04   1.328406159591961E-04
   1.345115452096669E-04   1.362034921627425E-04   1.379167211885768E-04
   1.396514999826905E-04   1.414080996077997E-04   1.431867945361695E-04
   1.449878626925015E-04   1.468115854973593E-04   1.486582479111416E-04
   1.505281384786075E-04   1.524215493739625E-04   1.543387764465113E-04
   1.562801192668846E-04   1.582458811738476E-04   1.602363693216979E-04
   1.622518947282580E-04   1.642927723234735E-04   1.663593209986208E-04
   1.684518636561349E-04   1.705707272600631E-04   1.727162428871545E-04
   1.748887457785910E-04   1.770885753923694E-04   1.793160754563423E-04
   1.815715940219267E-04   1.838554835184871E-04   1.861681008084043E-04
   1.885098072428348E-04   1.908809687181732E-04   1.932819557332241E-04
   1.957131434470933E-04   1.981749117378079E-04   2.006676452616714E-04
   2.031917335133686E-04   2.057475708868240E-04   2.083355567368270E-04
   2.109560954414323E-04   2.136095964651439E-04   2.162964744228952E-04
   2.190171491448336E-04   2.217720457419197E-04   2.245615946723518E-04
   2.273862318088256E-04   2.302463985066404E-04   2.331425416726618E-04
   2.360751138351516E-04   2.390445732144768E-04   2.420513837947068E-04
   2.450960153961121E-04   2.481789437485746E-04   2.513006505659218E-04
   2.544616236211951E-04   2.576623568228656E-04   2.609033502920076E-04
   2.641851104404448E-04   2.675081500498769E-04   2.708729883520041E-04
   2.742801511096566E-04   2.777301706989474E-04   2.812235861924563E-04
   2.847609434434613E-04   2.883427951712302E-04   2.919697010473827E-04
   2.956422277833408E-04   2.993609492188787E-04   3.031264464117865E-04
   3.069393077286619E-04   3.108001289368428E-04   3.147095132974979E-04
   3.186680716598871E-04   3.226764225568082E-04   3.267351923012443E-04
   3.308450150842254E-04   3.350065330739228E-04   3.392203965159892E-04
   3.434872638351601E-04   3.478078017381358E-04   3.521826853177536E-04
   3.566125981584735E-04   3.610982324431897E-04   3.656402890613848E-04
   3.702394777186470E-04   3.748965170475609E-04   3.796121347199963E-04
   3.843870675608086E-04   3.892220616629685E-04   3.941178725041420E-04
   3.990752650647333E-04   4.040950139474160E-04   4.091779034981656E-04
   4.143247279288154E-04   4.195362914411546E-04   4.248134083525847E-04
   4.301569032233595E-04   4.355676109854239E-04   4.410463770728736E-04
   4.465940575540573E-04   4.522115192653362E-04   4.578996399465321E-04
   4.636593083780735E-04   4.694914245198709E-04   4.753968996519375E-04
   4.813766565167773E-04   4.874316294635663E-04   4.935627645941463E-04
   4.997710199108548E-04   5.060573654662172E-04   5.124227835145151E-04
   5.188682686652695E-04   5.253948280386486E-04   5.320034814228323E-04
   5.386952614333582E-04   5.454712136744672E-04   5.523323969024827E-04
   5.592798831912428E-04   5.663147580996156E-04   5.734381208411175E-04
   5.806510844556701E-04   5.879547759835126E-04   5.953503366413057E-04
   6.028389220004487E-04   6.104217021676395E-04   6.180998619677068E-04
   6.258746011287404E-04   6.337471344695521E-04   6.417186920894934E-04
   6.497905195606600E-04   6.579638781225176E-04   6.662400448789697E-04
   6.746203129979097E-04   6.831059919132816E-04   6.916984075296796E-04
   7.003989024295258E-04   7.092088360828492E-04   7.181295850597069E-04
   7.271625432452764E-04   7.363091220576514E-04   7.455707506683807E-04
   7.549488762257775E-04   7.644449640810396E-04   7.740604980172152E-04
   7.837969804810437E-04   7.936559328177202E-04   8.036388955086050E-04
   8.137474284119287E-04   8.239831110065242E-04   8.343475426386206E-04
   8.448423427717480E-04   8.554691512397787E-04   8.662296285031556E-04
   8.771254559083444E-04   8.881583359505442E-04   8.993299925397087E-04
   9.106421712699085E-04   9.220966396920850E-04   9.336951875902339E-04
   9.454396272610609E-04   9.573317937971597E-04   9.693735453737461E-04
   9.815667635390023E-04   9.939133535080752E-04   1.006415244460766E-03
   1.019074389842971E-03   1.031892767671913E-03   1.044872380845205E-03
   1.058015257453814E-03   1.071323451098948E-03   1.084799041212942E-03
   1.098444133384165E-03   1.112260859686032E-03   1.126251379010137E-03
   1.140417877403588E-03   1.154762568410583E-03   1.169287693418274E-03
   1.183995522006996E-03   1.198888352304889E-03   1.213968511346987E-03
   1.229238355438821E-03   1.244700270524598E-03   1.260356672560006E-03
   1.276210007889717E-03   1.292262753629630E-03   1.308517418053927E-03
   1.324976540986995E-03   1.341642694200277E-03   1.358518481814121E-03
   1.375606540704676E-03   1.392909540915910E-03   1.410430186076808E-03
   1.428171213823823E-03   1.446135396228635E-03   1.464325540231292E-03
   1.482744488078805E-03   1.501395117769247E-03   1.520280343501453E-03
   1.539403116130365E-03   1.558766423628113E-03   1.578373291550886E-03
   1.598226783511691E-03   1.618330001659036E-03   1.638686087161659E-03
   1.659298220699334E-03   1.680169622959861E-03   1.701303555142308E-03
   1.722703319466574E-03   1.744372259689375E-03   1.766313761626705E-03
   1.788531253682881E-03   1.811028207386242E-03   1.833808137931571E-03
   1.856874604729365E-03   1.880231211961988E-03   1.903881609146840E-03
   1.927829491706599E-03   1.952078601546635E-03   1.976632727639700E-03
   2.001495706617948E-03   2.026671423372429E-03   2.052163811660108E-03
   2.077976854718517E-03   2.104114585888155E-03   2.130581089242691E-03
   2.157380500227121E-03   2.184517006303938E-03   2.211994847607424E-03
   2.239818317606187E-03   2.267991763774022E-03   2.296519588269211E-03
   2.325406248622373E-03   2.354656258432957E-03   2.384274188074508E-03
   2.414264665408789E-03   2.444632376508899E-03   2.475382066391483E-03
   2.506518539758142E-03   2.538046661746192E-03   2.569971358688836E-03
   2.602297618884921E-03   2.635030493378374E-03   2.668175096747427E-03
   2.701736607903792E-03   2.735720270901869E-03   2.770131395758138E-03
   2.804975359280872E-03   2.840257605910260E-03   2.875983648569120E-03
   2.912159069524304E-03   2.948789521258934E-03   2.985880727355620E-03
   3.023438483390776E-03   3.061468657840197E-03   3.099977192996011E-03
   3.138970105895183E-03   3.178453489259686E-03   3.218433512448498E-03
   3.258916422421586E-03   3.299908544715994E-03   3.341416284434229E-03
   3.383446127245071E-03   3.426004640396970E-03   3.469098473744192E-03
   3.512734360785873E-03   3.556919119718138E-03   3.601659654499469E-03
   3.646962955929448E-03   3.692836102741096E-03   3.739286262706931E-03
   3.786320693758948E-03   3.833946745122697E-03   3.882171858465595E-03
   3.931003569059719E-03   3.980449506959198E-03   4.030517398192426E-03
   4.081215065969273E-03   4.132550431903475E-03   4.184531517250401E-03
   4.237166444160391E-03   4.290463436947865E-03   4.344430823376378E-03
   4.399077035959855E-03   4.454410613280194E-03   4.510440201321427E-03
   4.567174554820677E-03   4.624622538636108E-03   4.682793129132067E-03
   4.741695415581670E-03   4.801338601587012E-03   4.861732006517252E-03
   4.922885066964781E-03   4.984807338219710E-03   5.047508495762905E-03
   5.110998336777799E-03   5.175286781681223E-03   5.240383875673485E-03
   5.306299790307965E-03   5.373044825080432E-03   5.440629409038363E-03
   5.509064102410503E-03   5.578359598256921E-03   5.648526724139828E-03
   5.719576443815399E-03   5.791519858946885E-03   5.864368210839271E-03
   5.938132882195749E-03   6.012825398896296E-03   6.088457431798608E-03
   6.165040798561702E-03   6.242587465492446E-03   6.321109549415314E-03
   6.400619319565675E-03   6.481129199506879E-03   6.562651769071467E-03
   6.645199766326792E-03   6.728786089565368E-03   6.813423799320261E-03
   6.899126120405815E-03   6.985906443984065E-03   7.073778329657125E-03
   7.162755507585905E-03   7.252851880635487E-03   7.344081526547459E-03
   7.436458700139603E-03   7.529997835533240E-03   7.624713548408577E-03
   7.720620638288452E-03   7.817734090850783E-03   7.916069080270115E-03
   8.015640971588609E-03   8.116465323116859E-03   8.218557888864924E-03
   8.321934621003909E-03   8.426611672358534E-03   8.532605398931041E-03
   8.639932362456850E-03   8.748609332992372E-03   8.858653291535359E-03
   8.970081432678216E-03   9.082911167294705E-03   9.197160125260409E-03
   9.312846158207450E-03   9.429987342313845E-03   9.548601981127934E-03
   9.668708608428360E-03   9.790325991119991E-03   9.913473132166306E-03
   1.003816927355864E-02   1.016443389932278E-02   1.029228673856340E-02
   1.042174776854673E-02   1.055283721782211E-02   1.068557556938269E-02
   1.081998356386595E-02   1.095608220279450E-02   1.109389275185756E-02
   1.123343674423380E-02   1.137473598395592E-02   1.151781254931762E-02
   1.166268879632332E-02   1.180938736218138E-02   1.195793116884115E-02
   1.210834342657467E-02   1.226064763760319E-02   1.241486759976958E-02
   1.257102741025667E-02   1.272915146935257E-02   1.288926448426322E-02
   1.305139147297294E-02   1.321555776815358E-02   1.338178902112276E-02
   1.355011120585194E-02   1.372055062302496E-02   1.389313390414749E-02
   1.406788801570836E-02   1.424484026339302E-02   1.442401829635019E-02
   1.460545011151205E-02   1.478916405796886E-02   1.497518884139851E-02
   1.516355352855189E-02   1.535428755179459E-02   1.554742071370581E-02
   1.574298319173501E-02   1.594100554291727E-02   1.614151870864784E-02
   1.634455401951681E-02   1.655014320020459E-02   1.675831837443892E-02
   1.696911207001432E-02   1.718255722387459E-02   1.739868718725927E-02
   1.761753573091487E-02   1.783913705037158E-02   1.806352577128641E-02
   1.829073695485354E-02   1.852080610328265E-02   1.875376916534628E-02
   1.898966254199683E-02   1.922852309205434E-02   1.947038813796571E-02
   1.971529547163646E-02   1.996328336033572E-02   2.021439055267566E-02
   2.046865628466595E-02   2.072612028584452E-02   2.098682278548538E-02
   2.125080451888448E-02   2.151810673372477E-02   2.178877119652112E-02
   2.206284019914653E-02   2.234035656544026E-02   2.262136365789914E-02
   2.290590538445310E-02   2.319402620532579E-02   2.348577113998169E-02
   2.378118577416037E-02   2.408031626699948E-02   2.438320935824708E-02
   2.468991237556493E-02   2.500047324192348E-02   2.531494048308994E-02
   2.563336323521053E-02   2.595579125248811E-02   2.628227491495636E-02
   2.661286523635176E-02   2.694761387208465E-02   2.728657312731039E-02
   2.762979596510224E-02   2.797733601472689E-02   2.832924758002418E-02
   2.868558564789215E-02   2.904640589687887E-02   2.941176470588237E-02
   2.978171916295985E-02   3.015632707424792E-02   3.053564697299487E-02
   3.091973812870660E-02   3.130866055640764E-02   3.170247502601858E-02
   3.210124307185153E-02   3.250502700222495E-02   3.291388990919944E-02
   3.332789567843608E-02   3.374710899917861E-02   3.417159537436128E-02
   3.460142113084385E-02   3.503665342977525E-02   3.547736027708768E-02
   3.592361053412266E-02   3.637547392839074E-02   3.683302106446661E-02
   3.729632343502117E-02   3.776545343199241E-02   3.824048435789681E-02
   3.872149043728301E-02   3.920854682832951E-02   3.970172963458835E-02
   4.020111591687638E-02   4.070678370531623E-02   4.121881201152864E-02
   4.173728084097817E-02   4.226227120547427E-02   4.279386513582947E-02
   4.333214569467694E-02   4.387719698944915E-02   4.442910418551980E-02
   4.498795351951116E-02   4.555383231276864E-02   4.612682898500498E-02
   4.670703306811600E-02   4.729453522017010E-02   4.788942723957385E-02
   4.849180207941556E-02   4.910175386198951E-02   4.971937789350271E-02
   5.034477067896662E-02   5.097802993727635E-02   5.161925461647939E-02
   5.226854490923644E-02   5.292600226847675E-02   5.359172942325029E-02
   5.426583039477943E-02   5.494841051271245E-02   5.563957643158148E-02
   5.633943614746756E-02   5.704809901487514E-02   5.776567576381905E-02
   5.849227851712626E-02   5.922802080795522E-02   5.997301759753577E-02
   6.072738529313198E-02   6.149124176623107E-02   6.226470637096105E-02
   6.304789996274000E-02   6.384094491716009E-02   6.464396514910890E-02
   6.545708613213143E-02   6.628043491803558E-02   6.711414015674425E-02
   6.795833211639721E-02   6.881314270370564E-02   6.967870548456298E-02
   7.055515570491468E-02   7.144263031189085E-02   7.234126797520443E-02
   7.325120910881858E-02   7.417259589288674E-02   7.510557229596848E-02
   7.605028409752491E-02   7.700687891069713E-02   7.797550620537082E-02
   7.895631733153151E-02   7.994946554291313E-02   8.095510602094427E-02
   8.197339589899563E-02   8.300449428693241E-02   8.404856229597545E-02
   8.510576306387535E-02   8.617626178040302E-02   8.726022571316083E-02
   8.835782423371867E-02   8.946922884407839E-02   9.059461320347155E-02
   9.173415315549394E-02   9.288802675558144E-02   9.405641429883169E-02
   9.523949834817536E-02   9.643746376290221E-02   9.765049772754555E-02
   9.887878978113031E-02   1.001225318467888E-01   1.013819182617493E-01
   1.026571458077013E-01   1.039484137415433E-01   1.052559238265171E-01
   1.065798803637336E-01   1.079204902240955E-01   1.092779628806207E-01
   1.106525104411739E-01   1.120443476816077E-01   1.134536920793228E-01
   1.148807638472486E-01   1.163257859682523E-01   1.177889842299802E-01
   1.192705872601375E-01   1.207708265622122E-01   1.222899365516473E-01
   1.238281545924695E-01   1.253857210343770E-01   1.269628792502955E-01
   1.285598756744047E-01   1.301769598406452E-01   1.318143844217079E-01
   1.334724052685148E-01   1.351512814501968E-01   1.368512752945727E-01
   1.385726524291395E-01   1.403156818225766E-01   1.420806358267730E-01
   1.438677902193826E-01   1.456774242469152E-01   1.475098206683695E-01
   1.493652657994142E-01   1.512440495571261E-01   1.531464655052897E-01
   1.550728109002675E-01   1.570233867374464E-01   1.589984977982697E-01
   1.609984526978589E-01   1.630235639332361E-01   1.650741479321518E-01
   1.671505251025278E-01   1.692530198825216E-01   1.713819607912199E-01
   1.735376804799712E-01   1.757205157843626E-01   1.779308077768514E-01
   1.801689018200585E-01   1.824351476207314E-01   1.847298992843873E-01
   1.870535153706422E-01   1.894063589492371E-01   1.917887976567681E-01
   1.942012037541303E-01   1.966439541846845E-01   1.991174306331553E-01
   2.016220195852700E-01   2.041581123881482E-01   2.067261053114499E-01
   2.093263996092941E-01   2.119594015829550E-01   2.146255226443481E-01
   2.173251793803133E-01   2.200587936177083E-01   2.228267924893191E-01
   2.256296085006010E-01   2.284676795972582E-01   2.313414492336734E-01
   2.342513664421993E-01   2.371978859033199E-01   2.401814680166957E-01
   2.432025789731022E-01   2.462616908272726E-01   2.493592815716582E-01
   2.524958352111146E-01   2.556718418385296E-01   2.588877977114004E-01
   2.621442053293747E-01   2.654415735127684E-01   2.687804174820685E-01
   2.721612589384382E-01   2.755846261452334E-01   2.790510540105450E-01
   2.825610841707796E-01   2.861152650752908E-01   2.897141520720762E-01
   2.933583074945508E-01   2.970483007494135E-01   3.007847084056178E-01
   3.045681142844616E-01   3.083991095508112E-01   3.122782928054709E-01
   3.162062701787165E-01   3.201836554250043E-01   3.242110700188707E-01
   3.282891432520404E-01   3.324185123317526E-01   3.365998224803273E-01
   3.408337270359822E-01   3.451208875549180E-01   3.494619739146884E-01
   3.538576644188688E-01   3.583086459030435E-01   3.628156138421254E-01
   3.673792724590239E-01   3.720003348346833E-01   3.766795230195013E-01
   3.814175681461512E-01   3.862152105438242E-01   3.910731998539055E-01
   3.959922951471087E-01   4.009732650420813E-01   4.060168878255030E-01
   4.111239515736953E-01   4.162952542757590E-01   4.215316039582628E-01
   4.268338188114978E-01   4.322027273173220E-01   4.376391683786131E-01
   4.431439914503468E-01   4.487180566723284E-01   4.543622350035890E-01
   4.600774083584758E-01   4.658644697444537E-01   4.717243234016375E-01
   4.776578849440836E-01   4.836660815028548E-01   4.897498518708868E-01
   4.959101466496777E-01   5.021479283978194E-01   5.084641717814015E-01
   5.148598637263027E-01   5.213360035724015E-01   5.278936032297250E-01
   5.345336873365608E-01   5.412572934195604E-01   5.480654720558534E-01
   5.549592870372027E-01   5.619398155362252E-01   5.690081482747005E-01
   5.761653896940001E-01   5.834126581276569E-01   5.907510859761080E-01
   5.981818198836359E-01   6.057060209175305E-01   6.133248647495123E-01
   6.210395418394302E-01   6.288512576212751E-01   6.367612326915314E-01
   6.447707029998963E-01   6.528809200424014E-01   6.610931510569595E-01
   6.694086792213746E-01   6.778288038538409E-01   6.863548406159624E-01
   6.949881217183302E-01   7.037299961286809E-01   7.125818297826761E-01
   7.215450057973342E-01   7.306209246871426E-01   7.398110045828934E-01
   7.491166814532675E-01   7.585394093292080E-01   7.680806605311170E-01
   7.777419258989059E-01   7.875247150249451E-01   7.974305564899384E-01
   8.074609981017681E-01   8.176176071373435E-01   8.279019705874898E-01
   8.383156954049203E-01   8.488604087553245E-01   8.595377582716163E-01
   8.703494123113815E-01   8.812970602175596E-01   8.923824125824098E-01
   9.036072015147922E-01   9.149731809108140E-01   9.264821267278809E-01
   9.381358372621916E-01   9.499361334297263E-01   9.618848590507698E-01
   9.739838811380096E-01   9.862350901882633E-01   9.986404004778696E-01
   1.011201750361800E+00   1.023921102576531E+00   1.036800444546722E+00
   1.049841788695762E+00   1.063047172760204E+00   1.076418660108177E+00
   1.089958340061782E+00   1.103668328223559E+00   1.117550766807052E+00
   1.131607824971534E+00   1.145841699160941E+00   1.160254613447075E+00
   1.174848819877116E+00   1.189626598825512E+00   1.204590259350289E+00
   1.219742139553846E+00   1.235084606948294E+00   1.250620058825377E+00
   1.266350922631057E+00   1.282279656344810E+00   1.298408748863684E+00
   1.314740720391202E+00   1.331278122831141E+00   1.348023540186279E+00
   1.364979588962147E+00   1.382148918575862E+00   1.399534211770109E+00
   1.417138185032319E+00   1.434963589019131E+00   1.453013208986183E+00
   1.471289865223317E+00   1.489796413495255E+00   1.508535745487815E+00
   1.527510789259749E+00   1.546724509700249E+00   1.566179908992225E+00
   1.585880027081399E+00   1.605827942151302E+00   1.626026771104248E+00
   1.646479670048357E+00   1.667189834790701E+00   1.688160501336654E+00
   1.709394946395530E+00   1.730896487892571E+00   1.752668485487382E+00
   1.774714341098882E+00   1.797037499436864E+00   1.819641448540233E+00
   1.842529720322025E+00   1.865705891121275E+00   1.889173582261821E+00
   1.912936460618147E+00   1.936998239188346E+00   1.961362677674271E+00
   1.986033583069004E+00   2.011014810251710E+00   2.036310262589960E+00
   2.061923892549645E+00   2.087859702312557E+00   2.114121744401738E+00
   2.140714122314696E+00   2.167640991164584E+00   2.194906558329440E+00
   2.222515084109608E+00   2.250470882393409E+00   2.278778321331203E+00
   2.307441824017916E+00   2.336465869184159E+00   2.365854991896039E+00
   2.395613784263769E+00   2.425746896159207E+00   2.456259035942391E+00
   2.487154971197238E+00   2.518439529476490E+00   2.550117599056026E+00
   2.582194129698672E+00   2.614674133427598E+00   2.647562685309468E+00
   2.680864924247425E+00   2.714586053784056E+00   2.748731342914461E+00
   2.783306126909534E+00   2.818315808149617E+00   2.853765856968631E+00
   2.889661812508825E+00   2.926009283586290E+00   2.962813949567327E+00
   3.000081561255876E+00   3.037817941792084E+00   3.076028987562183E+00
   3.114720669119821E+00   3.153899032118958E+00   3.193570198258521E+00
   3.233740366238930E+00   3.274415812730657E+00   3.315602893354977E+00
   3.357308043677031E+00   3.399537780211405E+00   3.442298701440350E+00
   3.485597488844804E+00   3.529440907948396E+00   3.573835809374558E+00
   3.618789129916960E+00   3.664307893623396E+00   3.710399212893299E+00
   3.757070289589086E+00   3.804328416161440E+00   3.852180976788786E+00
   3.900635448531078E+00   3.949699402498104E+00   3.999380505032499E+00
   4.049686518907610E+00   4.100625304540451E+00   4.152204821219912E+00
   4.204433128350412E+00   4.257318386711206E+00   4.310868859731506E+00
   4.365092914781669E+00   4.419999024480617E+00   4.475595768019694E+00
   4.531891832503199E+00   4.588896014305739E+00   4.646617220446694E+00
   4.705064469981961E+00   4.764246895413187E+00   4.824173744114760E+00
   4.884854379778709E+00   4.946298283877812E+00   5.008515057147092E+00
   5.071514421083951E+00   5.135306219467186E+00   5.199900419895072E+00
   5.265307115342848E+00   5.331536525739746E+00   5.398598999565882E+00
   5.466505015469240E+00   5.535265183902956E+00   5.604890248783240E+00
   5.675391089168135E+00   5.746778720957381E+00   5.819064298613693E+00
   5.892259116905642E+00   5.966374612672502E+00   6.041422366611275E+00
   6.117414105086195E+00   6.194361701961016E+00   6.272277180454296E+00
   6.351172715018068E+00   6.431060633240123E+00   6.511953417770211E+00
   6.593863708270502E+00   6.676804303390533E+00   6.760788162767031E+00
   6.845828409048891E+00   6.931938329947606E+00   7.019131380313519E+00
   7.107421184238141E+00   7.196821537182959E+00   7.287346408135010E+00
   7.379009941789547E+00   7.471826460760207E+00   7.565810467816910E+00
   7.660976648151971E+00   7.757339871674684E+00   7.854915195334769E+00
   7.953717865475081E+00   8.053763320213839E+00   8.155067191856888E+00
   8.257645309340280E+00   8.361513700703556E+00   8.466688595594208E+00
   8.573186427803535E+00   8.681023837834486E+00   8.790217675501781E+00
   8.900785002564701E+00   9.012743095393068E+00   9.126109447666659E+00
   9.240901773108661E+00   9.357138008253472E+00   9.474836315249309E+00
   9.594015084696119E+00   9.714692938519086E+00   9.836888732878393E+00
   9.960621561115516E+00   1.008591075673660E+01   1.021277589643337E+01
   1.034123680314202E+01   1.047131354914057E+01   1.060302645918523E+01
   1.073639611368614E+01   1.087144335192320E+01   1.100818927530212E+01
   1.114665525065164E+01   1.128686291356212E+01   1.142883417176614E+01
   1.157259120856165E+01   1.171815648627812E+01   1.186555274978634E+01
   1.201480303005237E+01   1.216593064773614E+01   1.231895921683541E+01
   1.247391264837543E+01   1.263081515414513E+01   1.278969125048025E+01
   1.295056576209409E+01   1.311346382595639E+01   1.327841089522104E+01
   1.344543274320322E+01   1.361455546740646E+01   1.378580549360050E+01
   1.395920957995037E+01   1.413479482119733E+01   1.431258865289258E+01
   1.449261885568402E+01   1.467491355965712E+01   1.485950124873027E+01
   1.504641076510542E+01   1.523567131377478E+01   1.542731246708413E+01
   1.562136416935356E+01   1.581785674155638E+01   1.601682088605675E+01
   1.621828769140703E+01   1.642228863720547E+01   1.662885559901486E+01
   1.683802085334328E+01   1.704981708268725E+01   1.726427738063851E+01
   1.748143525705495E+01   1.770132464329654E+01   1.792397989752729E+01
   1.814943581008364E+01   1.837772760891063E+01   1.860889096506630E+01
   1.884296199829532E+01   1.907997728267290E+01   1.931997385231941E+01
   1.956298920718713E+01   1.980906131891969E+01   2.005822863678516E+01
   2.031053009368393E+01   2.056600511223193E+01   2.082469361092059E+01
   2.108663601035411E+01   2.135187323956533E+01   2.162044674241098E+01
   2.189239848404727E+01   2.216777095748712E+01   2.244660719023975E+01
   2.272895075103382E+01   2.301484575662517E+01   2.330433687869006E+01
   2.359746935080529E+01   2.389428897551600E+01   2.419484213149243E+01
   2.449917578077671E+01   2.480733747612069E+01   2.511937536841625E+01
   2.543533821421888E+01   2.575527538336606E+01   2.607923686669142E+01
   2.640727328383583E+01   2.673943589115686E+01   2.707577658973767E+01
   2.741634793349672E+01   2.776120313739938E+01   2.811039608577287E+01
   2.846398134072581E+01   2.882201415067365E+01   2.918455045897136E+01
   2.955164691265474E+01   2.992336087129151E+01   3.029975041594397E+01
   3.068087435824424E+01   3.106679224958368E+01   3.145756439041804E+01
   3.185325183968930E+01   3.225391642436646E+01   3.265962074910603E+01
   3.307042820603414E+01   3.348640298465176E+01   3.390761008186437E+01
   3.433411531213783E+01   3.476598531778212E+01   3.520328757936422E+01
   3.564609042625228E+01   3.609446304729197E+01   3.654847550161755E+01
   3.700819872959872E+01   3.747370456392512E+01   3.794506574083051E+01
   3.842235591145773E+01   3.890564965336701E+01   3.939502248218880E+01
   3.989055086342319E+01   4.039231222438797E+01   4.090038496631662E+01