<UPF version="2.0.1">
  <PP_INFO>
    Generated using "atomic" code by A. Dal Corso  v.7.2
    Author: ADC
    Generation date: 31May2024
    Pseudopotential type: PAW
    Element: Si
    Functional:  SLA  PW   PBX  PBC
    Suggested minimum cutoff for wavefunctions:  44. Ry
    Suggested minimum cutoff for charge density: 175. Ry
    The Pseudo was generated with a Scalar-Relativistic Calculation
    Local Potential by smoothing AE potential with Bessel fncs, cutoff radius:   1.9000
    Valence configuration: 
    nl pn  l   occ       Rcut    Rcut US       E pseu
    3S  1  0  2.00      1.600      1.800    -0.794729
    3P  2  1  2.00      1.600      1.800    -0.299966
    Generation configuration:
    3S  1  0  2.00      1.600      1.800    -0.794725
    3S  1  0  0.00      1.600      1.800     6.000000
    3P  2  1  2.00      1.600      1.800    -0.299965
    3P  2  1  0.00      1.600      1.800     6.000000
    3D  3  2  0.00      1.600      1.800     0.100000
    3D  3  2  0.00      1.600      1.800     0.300000
    Pseudization used: troullier-martins
    <PP_INPUTFILE>
@input
title='Si',
zed=14.,
rel=1,
config='[Ne] 3s2 3p2 3d-1',
iswitch=3,
dft='PBE'
/
@inputp
lpaw=.true.,
pseudotype=3,
file_pseudopw='Si.pbe-n-kjpaw_psl.1.0.0.UPF',
author='ADC',
lloc=-1,
rcloc=1.9,
which_augfun='PSQ',
rmatch_augfun_nc=.true.,
nlcc=.true.,
new_core_ps=.true.,
rcore=1.3,
tm=.true.
/
6
3S  1  0  2.00  0.00  1.60  1.80  0.0
3S  1  0  0.00  6.00  1.60  1.80  0.0
3P  2  1  2.00  0.00  1.60  1.80  0.0
3P  2  1  0.00  6.00  1.60  1.80  0.0
3D  3  2  0.00  0.10  1.60  1.80  0.0
3D  3  2  0.00  0.30  1.60  1.80  0.0
    </PP_INPUTFILE>
  </PP_INFO>
    <!-- END OF HUMAN READABLE SECTION -->
  <PP_HEADER generated="Generated using 'atomic' code by A. Dal Corso  v.7.2" author="ADC" date="31May2024" comment="" element="Si" pseudo_type="PAW" relativistic="scalar" is_ultrasoft="true" is_paw="true" is_coulomb="false" has_so="false" has_wfc="true" has_gipaw="false" paw_as_gipaw="false" core_correction="true" functional=" SLA  PW   PBX  PBC" z_valence="4.00000000000000" total_psenergy="-46.3290059977072" wfc_cutoff="43.7435399286416" rho_cutoff="174.974159714566" l_max="2" l_max_rho="4" l_local="-1" mesh_size="1141" number_of_wfc="2" number_of_proj="6"/>
  <PP_MESH mesh="1141" dx="1.250000000000000E-002" xmin="-7.00000000000000" rmax="100.000000000000" zmesh="14.0000000000000">
    <PP_R>
   6.513442611103688E-05   6.595371633350159E-05   6.678331195832729E-05
   6.762334261151813E-05   6.847393954957285E-05   6.933523567999349E-05
   7.020736558205276E-05   7.109046552782224E-05   7.198467350346503E-05
   7.289012923079676E-05   7.380697418911693E-05   7.473535163731561E-05
   7.567540663625787E-05   7.662728607144977E-05   7.759113867598985E-05
   7.856711505380845E-05   7.955536770320024E-05   8.055605104065232E-05
   8.156932142497197E-05   8.259533718171841E-05   8.363425862794104E-05
   8.468624809722948E-05   8.575146996507863E-05   8.683009067457247E-05
   8.792227876239150E-05   8.902820488514639E-05   9.014804184604389E-05
   9.128196462188746E-05   9.243015039041771E-05   9.359277855799715E-05
   9.477003078764225E-05   9.596209102740905E-05   9.716914553913527E-05
   9.839138292754407E-05   9.962899416971419E-05   1.008821726449201E-04
   1.021511141648482E-04   1.034360170041925E-04   1.047370819316359E-04
   1.060545122412205E-04   1.073885137841123E-04   1.087392950007665E-04
   1.101070669534965E-04   1.114920433594523E-04   1.128944406240155E-04
   1.143144778746117E-04   1.157523769949505E-04   1.172083626596947E-04
   1.186826623695667E-04   1.201755064868958E-04   1.216871282716124E-04
   1.232177639176959E-04   1.247676525900800E-04   1.263370364620229E-04
   1.279261607529478E-04   1.295352737667582E-04   1.311646269306362E-04
   1.328144748343287E-04   1.344850752699270E-04   1.361766892721483E-04
   1.378895811591221E-04   1.396240185736905E-04   1.413802725252283E-04
   1.431586174319885E-04   1.449593311639810E-04   1.467826950863899E-04
   1.486289941035378E-04   1.504985167034024E-04   1.523915550026934E-04
   1.543084047924968E-04   1.562493655844918E-04   1.582147406577512E-04
   1.602048371061288E-04   1.622199658862433E-04   1.642604418660669E-04
   1.663265838741224E-04   1.684187147493023E-04   1.705371613913124E-04
   1.726822548117502E-04   1.748543301858274E-04   1.770537269047399E-04
   1.792807886286999E-04   1.815358633406327E-04   1.838193034005500E-04
   1.861314656006070E-04   1.884727112208515E-04   1.908434060856750E-04
   1.932439206209733E-04   1.956746299120263E-04   1.981359137621063E-04
   2.006281567518223E-04   2.031517482992120E-04   2.057070827205888E-04
   2.082945592921548E-04   2.109145823123890E-04   2.135675611652186E-04
   2.162539103839868E-04   2.189740497162245E-04   2.217284041892363E-04
   2.245174041765129E-04   2.273414854649762E-04   2.302010893230733E-04
   2.330966625697249E-04   2.360286576441416E-04   2.389975326765194E-04
   2.420037515596223E-04   2.450477840212668E-04   2.481301056977181E-04
   2.512511982080092E-04   2.544115492291950E-04   2.576116525725522E-04
   2.608520082607388E-04   2.641331226059237E-04   2.674555082888986E-04
   2.708196844391863E-04   2.742261767161545E-04   2.776755173911522E-04
   2.811682454306774E-04   2.847049065805922E-04   2.882860534513970E-04
   2.919122456045762E-04   2.955840496400312E-04   2.993020392846128E-04
   3.030667954817672E-04   3.068789064823100E-04   3.107389679363406E-04
   3.146475829863147E-04   3.186053623612859E-04   3.226129244723333E-04
   3.266708955091909E-04   3.307799095380890E-04   3.349406086008293E-04
   3.391536428151055E-04   3.434196704760850E-04   3.477393581592688E-04
   3.521133808246465E-04   3.565424219221583E-04   3.610271734984867E-04
   3.655683363051897E-04   3.701666199081946E-04   3.748227427986703E-04
   3.795374325052911E-04   3.843114257079157E-04   3.891454683526949E-04
   3.940403157686265E-04   3.989967327855786E-04   4.040154938537934E-04
   4.090973831648989E-04   4.142431947744390E-04   4.194537327259466E-04
   4.247298111765782E-04   4.300722545243256E-04   4.354818975368313E-04
   4.409595854818219E-04   4.465061742591829E-04   4.521225305346962E-04
   4.578095318754559E-04   4.635680668869919E-04   4.693990353521156E-04
   4.753033483715124E-04   4.812819285061048E-04   4.873357099212019E-04
   4.934656385324666E-04   4.996726721537154E-04   5.059577806465798E-04
   5.123219460720500E-04   5.187661628439208E-04   5.252914378841740E-04
   5.318987907803103E-04   5.385892539446621E-04   5.453638727757115E-04
   5.522237058214336E-04   5.591698249446981E-04   5.662033154907502E-04
   5.733252764567968E-04   5.805368206637293E-04   5.878390749300021E-04
   5.952331802477007E-04   6.027202919608241E-04   6.103015799458100E-04
   6.179782287943310E-04   6.257514379983877E-04   6.336224221377328E-04
   6.415924110696518E-04   6.496626501211296E-04   6.578344002834386E-04
   6.661089384091661E-04   6.744875574117294E-04   6.829715664673938E-04
   6.915622912198345E-04   7.002610739872734E-04   7.090692739722151E-04
   7.179882674738276E-04   7.270194481029912E-04   7.361642270000529E-04
   7.454240330553218E-04   7.548003131323325E-04   7.642945322939235E-04
   7.739081740311544E-04   7.836427404951055E-04   7.934997527315933E-04
   8.034807509188332E-04   8.135872946080984E-04   8.238209629674023E-04
   8.341833550282459E-04   8.446760899354727E-04   8.553008072002587E-04
   8.660591669562928E-04   8.769528502191749E-04   8.879835591490773E-04
   8.991530173167141E-04   9.104629699726478E-04   9.219151843199909E-04
   9.335114497905352E-04   9.452535783243520E-04   9.571434046529162E-04
   9.691827865857810E-04   9.813736053008674E-04   9.937177656384022E-04
   1.006217196398552E-03   1.018873850642804E-03   1.031689705999134E-03
   1.044666764971016E-03   1.057807055250315E-03   1.071112630034122E-03
   1.084585568345568E-03   1.098227975358674E-03   1.112041982727292E-03
   1.126029748918179E-03   1.140193459548258E-03   1.154535327726134E-03
   1.169057594397888E-03   1.183762528697233E-03   1.198652428300069E-03
   1.213729619783505E-03   1.228996458989384E-03   1.244455331392394E-03
   1.260108652472797E-03   1.275958868093861E-03   1.292008454884021E-03
   1.308259920623870E-03   1.324715804637992E-03   1.341378678191743E-03
   1.358251144893018E-03   1.375335841099067E-03   1.392635436328428E-03
   1.410152633678056E-03   1.427890170245673E-03   1.445850817557456E-03
   1.464037382001090E-03   1.482452705264267E-03   1.501099664778717E-03
   1.519981174169798E-03   1.539100183711769E-03   1.558459680788769E-03
   1.578062690361603E-03   1.597912275440400E-03   1.618011537563212E-03
   1.638363617280638E-03   1.658971694646541E-03   1.679838989714936E-03
   1.700968763043134E-03   1.722364316201205E-03   1.744028992287860E-03
   1.765966176452814E-03   1.788179296425725E-03   1.810671823051782E-03
   1.833447270834031E-03   1.856509198482525E-03   1.879861209470380E-03
   1.903506952596820E-03   1.927450122557320E-03   1.951694460520898E-03
   1.976243754714684E-03   2.001101841015845E-03   2.026272603550936E-03
   2.051759975302817E-03   2.077567938725177E-03   2.103700526364806E-03
   2.130161821491693E-03   2.156955958737036E-03   2.184087124739293E-03
   2.211559558798349E-03   2.239377553537921E-03   2.267545455576282E-03
   2.296067666205433E-03   2.324948642078817E-03   2.354192895907669E-03
   2.383804997166148E-03   2.413789572805326E-03   2.444151307976145E-03
   2.474894946761502E-03   2.506025292917503E-03   2.537547210624069E-03
   2.569465625244976E-03   2.601785524097445E-03   2.634511957231430E-03
   2.667650038218687E-03   2.701204944951792E-03   2.735181920453190E-03
   2.769586273694429E-03   2.804423380425701E-03   2.839698684015808E-03
   2.875417696302704E-03   2.911585998454730E-03   2.948209241842682E-03
   2.985293148922851E-03   3.022843514131165E-03   3.060866204788585E-03
   3.099367162017884E-03   3.138352401671959E-03   3.177828015273823E-03
   3.217800170968416E-03   3.258275114486386E-03   3.299259170120008E-03
   3.340758741711356E-03   3.382780313652924E-03   3.425330451900820E-03
   3.468415805000712E-03   3.512043105126685E-03   3.556219169133139E-03
   3.600950899619956E-03   3.646245286011030E-03   3.692109405646385E-03
   3.738550424888029E-03   3.785575600239702E-03   3.833192279480724E-03
   3.881407902814107E-03   3.930230004029088E-03   3.979666211678316E-03
   4.029724250269812E-03   4.080411941473949E-03   4.131737205345606E-03
   4.183708061561681E-03   4.236332630674197E-03   4.289619135379141E-03
   4.343575901801284E-03   4.398211360795159E-03   4.453534049262388E-03
   4.509552611485600E-03   4.566275800479114E-03   4.623712479356611E-03
   4.681871622716026E-03   4.740762318041829E-03   4.800393767124984E-03
   4.860775287500730E-03   4.921916313904470E-03   4.983826399745976E-03
   5.046515218602114E-03   5.109992565728375E-03   5.174268359589393E-03
   5.239352643408724E-03   5.305255586738136E-03   5.371987487046600E-03
   5.439558771329311E-03   5.507979997736910E-03   5.577261857225227E-03
   5.647415175225763E-03   5.718450913337182E-03   5.790380171038091E-03
   5.863214187421345E-03   5.936964342950183E-03   6.011642161236458E-03
   6.087259310841203E-03   6.163827607097896E-03   6.241359013958602E-03
   6.319865645863379E-03   6.399359769633193E-03   6.479853806386608E-03
   6.561360333480639E-03   6.643892086475966E-03   6.727461961126906E-03
   6.812083015396404E-03   6.897768471496345E-03   6.984531717953578E-03
   7.072386311701881E-03   7.161345980200268E-03   7.251424623577934E-03
   7.342636316806171E-03   7.434995311897620E-03   7.528516040133171E-03
   7.623213114316872E-03   7.719101331059236E-03   7.816195673089209E-03
   7.914511311595280E-03   8.014063608595984E-03   8.114868119340269E-03
   8.216940594738030E-03   8.320296983821212E-03   8.424953436235895E-03
   8.530926304765691E-03   8.638232147886907E-03   8.746887732355853E-03
   8.856910035828659E-03   8.968316249514090E-03   9.081123780859689E-03
   9.195350256271731E-03   9.311013523869408E-03   9.428131656273587E-03
   9.546722953430746E-03   9.666805945472338E-03   9.788399395610176E-03
   9.911522303068234E-03   1.003619390605130E-02   1.016243368475097E-02
   1.029026136438952E-02   1.041969691830196E-02   1.055076057105692E-02
   1.068347280161679E-02   1.081785434653761E-02   1.095392620320918E-02
   1.109170963313593E-02   1.123122616525912E-02   1.137249759932074E-02
   1.151554600926977E-02   1.166039374671132E-02   1.180706344439904E-02
   1.195557801977161E-02   1.210596067853358E-02   1.225823491828134E-02
   1.241242453217466E-02   1.256855361265440E-02   1.272664655520704E-02
   1.288672806217649E-02   1.304882314662391E-02   1.321295713623602E-02
   1.337915567728265E-02   1.354744473862395E-02   1.371785061576815E-02
   1.389039993498026E-02   1.406511965744243E-02   1.424203708346680E-02
   1.442117985676110E-02   1.460257596874815E-02   1.478625376293948E-02
   1.497224193936413E-02   1.516056955905308E-02   1.535126604858005E-02
   1.554436120465950E-02   1.573988519880242E-02   1.593786858203071E-02
   1.613834228965078E-02   1.634133764608732E-02   1.654688636977778E-02
   1.675502057812841E-02   1.696577279253273E-02   1.717917594345302E-02
   1.739526337556577E-02   1.761406885297189E-02   1.783562656447240E-02
   1.805997112891047E-02   1.828713760058073E-02   1.851716147470655E-02
   1.875007869298624E-02   1.898592564920904E-02   1.922473919494171E-02
   1.946655664528662E-02   1.971141578471237E-02   1.995935487295767E-02
   2.021041265100950E-02   2.046462834715644E-02   2.072204168311825E-02
   2.098269288025235E-02   2.124662266583862E-02   2.151387227944301E-02
   2.178448347936138E-02   2.205849854914428E-02   2.233596030420385E-02
   2.261691209850381E-02   2.290139783133362E-02   2.318946195416784E-02
   2.348114947761173E-02   2.377650597843426E-02   2.407557760668960E-02
   2.437841109292813E-02   2.468505375549818E-02   2.499555350793968E-02
   2.530995886647063E-02   2.562831895756798E-02   2.595068352564367E-02
   2.627710294081732E-02   2.660762820678665E-02   2.694231096879693E-02
   2.728120352171065E-02   2.762435881817867E-02   2.797183047691422E-02
   2.832367279107093E-02   2.867994073672620E-02   2.904068998147137E-02
   2.940597689310990E-02   2.977585854846490E-02   3.015039274229754E-02
   3.052963799633763E-02   3.091365356842767E-02   3.130249946178210E-02
   3.169623643436286E-02   3.209492600837299E-02   3.249863047986955E-02
   3.290741292849757E-02   3.332133722734632E-02   3.374046805292964E-02
   3.416487089529173E-02   3.459461206824019E-02   3.502975871970759E-02
   3.547037884224355E-02   3.591654128363865E-02   3.636831575768210E-02
   3.682577285505460E-02   3.728898405435830E-02   3.775802173328553E-02
   3.823295917992788E-02   3.871387060422767E-02   3.920083114957333E-02
   3.969391690454083E-02   4.019320491478257E-02   4.069877319506594E-02
   4.121070074146334E-02   4.172906754369543E-02   4.225395459762966E-02
   4.278544391793612E-02   4.332361855090240E-02   4.386856258740986E-02
   4.442036117607288E-02   4.497910053654359E-02   4.554486797298383E-02
   4.611775188770659E-02   4.669784179498911E-02   4.728522833505959E-02
   4.788000328825997E-02   4.848225958938675E-02   4.909209134221232E-02
   4.970959383418873E-02   5.033486355133669E-02   5.096799819332163E-02
   5.160909668871946E-02   5.225825921047444E-02   5.291558719155130E-02
   5.358118334078443E-02   5.425515165892635E-02   5.493759745489792E-02
   5.562862736224323E-02   5.632834935579121E-02   5.703687276852696E-02
   5.775430830867519E-02   5.848076807699872E-02   5.921636558431433E-02
   5.996121576922912E-02   6.071543501609989E-02   6.147914117321844E-02
   6.225245357122559E-02   6.303549304175685E-02   6.382838193632258E-02
   6.463124414542572E-02   6.544420511791986E-02   6.626739188061094E-02
   6.710093305810544E-02   6.794495889290816E-02   6.879960126577302E-02
   6.966499371630951E-02   7.054127146384870E-02   7.142857142857147E-02
   7.232703225290249E-02   7.323679432317352E-02   7.415799979155897E-02
   7.509079259828746E-02   7.603531849413284E-02   7.699172506318799E-02
   7.796016174592516E-02   7.894077986254630E-02   7.993373263662720E-02
   8.093917521905905E-02   8.195726471229091E-02   8.298816019487740E-02
   8.403202274633506E-02   8.508901547231132E-02   8.615930353007008E-02
   8.724305415429788E-02   8.834043668323466E-02   8.945162258513320E-02
   9.057678548505142E-02   9.171610119198158E-02   9.286974772632083E-02
   9.403790534768730E-02   9.522075658308594E-02   9.641848625542883E-02
   9.763128151241407E-02   9.885933185576799E-02   1.001028291708553E-01
   1.013619677566613E-01   1.026369443561518E-01   1.039279581870144E-01
   1.052352109727869E-01   1.065589069743765E-01   1.078992530219767E-01
   1.092564585473842E-01   1.106307356167238E-01   1.120222989635835E-01
   1.134313660225674E-01   1.148581569632703E-01   1.163028947246793E-01
   1.177658050500092E-01   1.192471165219745E-01   1.207470605985066E-01
   1.222658716489189E-01   1.238037869905283E-01   1.253610469257357E-01
   1.269378947795742E-01   1.285345769377292E-01   1.301513428850364E-01
   1.317884452444643E-01   1.334461398165874E-01   1.351246856195550E-01
   1.368243449295641E-01   1.385453833218396E-01   1.402880697121320E-01
   1.420526763987352E-01   1.438394791050341E-01   1.456487570225869E-01
   1.474807928547491E-01   1.493358728608469E-01   1.512142869009054E-01
   1.531163284809400E-01   1.550422947988174E-01   1.569924867906931E-01
   1.589672091780335E-01   1.609667705152293E-01   1.629914832378075E-01
   1.650416637112504E-01   1.671176322804280E-01   1.692197133196529E-01
   1.713482352833642E-01   1.735035307574492E-01   1.756859365112108E-01
   1.778957935499880E-01   1.801334471684392E-01   1.823992470044949E-01
   1.846935470939891E-01   1.870167059259787E-01   1.893690864987577E-01
   1.917510563765765E-01   1.941629877470747E-01   1.966052574794361E-01
   1.990782471832751E-01   2.015823432682644E-01   2.041179370045118E-01
   2.066854245836973E-01   2.092852071809788E-01   2.119176910176763E-01
   2.145832874247453E-01   2.172824129070475E-01   2.200154892084309E-01
   2.227829433776281E-01   2.255852078349835E-01   2.284227204400198E-01
   2.312959245598545E-01   2.342052691384768E-01   2.371512087668964E-01
   2.401342037541736E-01   2.431547201993443E-01   2.462132300642483E-01
   2.493102112472745E-01   2.524461476580336E-01   2.556215292929701E-01
   2.588368523119245E-01   2.620926191156605E-01   2.653893384243647E-01
   2.687275253571366E-01   2.721077015124759E-01   2.755303950497840E-01
   2.789961407718896E-01   2.825054802086128E-01   2.860589617013805E-01
   2.896571404889055E-01   2.933005787939439E-01   2.969898459111436E-01
   3.007255182959973E-01   3.045081796549157E-01   3.083384210364319E-01
   3.122168409235543E-01   3.161440453272811E-01   3.201206478812905E-01
   3.241472699378218E-01   3.282245406647636E-01   3.323530971439624E-01
   3.365335844707674E-01   3.407666558548290E-01   3.450529727221629E-01
   3.493932048185005E-01   3.537880303139370E-01   3.582381359088972E-01
   3.627442169414345E-01   3.673069774958777E-01   3.719271305128465E-01
   3.766053979006496E-01   3.813425106480842E-01   3.861392089386549E-01
   3.909962422662287E-01   3.959143695521447E-01   4.008943592637971E-01
   4.059369895347104E-01   4.110430482861238E-01   4.162133333501054E-01
   4.214486525942157E-01   4.267498240477376E-01   4.321176760294964E-01
   4.375530472772849E-01   4.430567870789192E-01   4.486297554049405E-01
   4.542728230429883E-01   4.599868717338616E-01   4.657727943092939E-01
   4.716314948314593E-01   4.775638887342338E-01   4.835709029662342E-01
   4.896534761356559E-01   4.958125586569313E-01   5.020491128992355E-01
   5.083641133368570E-01   5.147585467014623E-01   5.212334121362739E-01
   5.277897213521895E-01   5.344284987858631E-01   5.411507817597749E-01
   5.479576206443167E-01   5.548500790219127E-01   5.618292338532068E-01
   5.688961756453412E-01   5.760520086223482E-01   5.832978508976897E-01
   5.906348346489624E-01   5.980641062948049E-01   6.055868266740270E-01
   6.132041712269926E-01   6.209173301792863E-01   6.287275087276866E-01
   6.366359272284815E-01   6.446438213881519E-01   6.527524424564520E-01
   6.609630574219213E-01   6.692769492098526E-01   6.776954168827521E-01
   6.862197758433221E-01   6.948513580399920E-01   7.035915121750421E-01
   7.124416039153376E-01   7.214030161057183E-01   7.304771489850718E-01
   7.396654204051211E-01   7.489692660519699E-01   7.583901396704293E-01
   7.679295132911685E-01   7.775888774607246E-01   7.873697414744003E-01
   7.972736336120981E-01   8.073021013771136E-01   8.174567117379377E-01
   8.277390513730998E-01   8.381507269190867E-01   8.486933652213862E-01
   8.593686135886813E-01   8.701781400502485E-01   8.811236336165901E-01
   8.922068045433438E-01   9.034293845985166E-01   9.147931273330744E-01
   9.262998083549386E-01   9.379512256064303E-01   9.497491996451991E-01
   9.616955739286926E-01   9.737922151021975E-01   9.860410132905073E-01
   9.984438823932600E-01   1.011002760383986E+00   1.023719609612924E+00
   1.036596417113637E+00   1.049635194913496E+00   1.062837980348060E+00
   1.076206836379414E+00   1.089743851918512E+00   1.103451142151573E+00
   1.117330848870584E+00   1.131385140807959E+00   1.145616213975405E+00
   1.160026292007060E+00   1.174617626506933E+00   1.189392497400725E+00
   1.204353213292074E+00   1.219502111823276E+00   1.234841560040546E+00
   1.250373954763878E+00   1.266101722961546E+00   1.282027322129332E+00
   1.298153240674505E+00   1.314481998304647E+00   1.331016146421358E+00
   1.347758268518921E+00   1.364710980587976E+00   1.381876931524273E+00
   1.399258803542571E+00   1.416859312595738E+00   1.434681208799120E+00
   1.452727276860259E+00   1.471000336514003E+00   1.489503242963101E+00
   1.508238887324330E+00   1.527210197080240E+00   1.546420136536576E+00
   1.565871707285462E+00   1.585567948674403E+00   1.605511938281188E+00
   1.625706792394767E+00   1.646155666502185E+00   1.666861755781623E+00
   1.687828295601659E+00   1.709058562026797E+00   1.730555872329356E+00
   1.752323585507812E+00   1.774365102811632E+00   1.796683868272741E+00
   1.819283369243650E+00   1.842167136942362E+00   1.865338747004141E+00
   1.888801820040200E+00   1.912560022203438E+00   1.936617065761279E+00
   1.960976709675722E+00   1.985642760190691E+00   2.010619071426761E+00
   2.035909545983378E+00   2.061518135548645E+00   2.087448841516782E+00
   2.113705715613355E+00   2.140292860528359E+00   2.167214430557281E+00
   2.194474632250210E+00   2.222077725069119E+00   2.250028022053425E+00
   2.278329890493894E+00   2.306987752615050E+00   2.336006086266155E+00
   2.365389425620880E+00   2.395142361885782E+00   2.425269544017683E+00
   2.455775679450086E+00   2.486665534828718E+00   2.517943936756326E+00
   2.549615772546850E+00   2.581685990989068E+00   2.614159603119858E+00
   2.647041683007185E+00   2.680337368542930E+00   2.714051862245699E+00
   2.748190432073725E+00   2.782758412247999E+00   2.817761204085754E+00
   2.853204276844425E+00   2.889093168576244E+00   2.925433486993559E+00
   2.962230910345055E+00   2.999491188303001E+00   3.037220142861629E+00
   3.075423669246853E+00   3.114107736837395E+00   3.153278390097518E+00
   3.192941749521490E+00   3.233104012589913E+00   3.273771454738107E+00
   3.314950430336643E+00   3.356647373684236E+00   3.398868800013122E+00
   3.441621306507060E+00   3.484911573332174E+00   3.528746364680730E+00
   3.573132529828055E+00   3.618077004202762E+00   3.663586810470409E+00
   3.709669059630819E+00   3.756330952129177E+00   3.803579778981117E+00
   3.851422922911969E+00   3.899867859510306E+00   3.948922158396031E+00
   3.998593484403154E+00   4.048889598777416E+00   4.099818360389017E+00
   4.151387726960574E+00   4.203605756310529E+00   4.256480607612214E+00
   4.310020542668714E+00   4.364233927203812E+00   4.419129232169139E+00
   4.474715035067776E+00   4.531000021294525E+00   4.587992985492993E+00
   4.645702832929786E+00   4.704138580885982E+00   4.763309360066087E+00
   4.823224416024725E+00   4.883893110611297E+00   4.945324923432760E+00
   5.007529453334852E+00   5.070516419901923E+00   5.134295664975648E+00
   5.198877154192834E+00   5.264270978542561E+00   5.330487355942927E+00
   5.397536632837620E+00   5.465429285812563E+00   5.534175923232922E+00
   5.603787286900654E+00   5.674274253732958E+00   5.745647837461808E+00
   5.817919190354867E+00   5.891099604958073E+00   5.965200515860091E+00
   6.040233501479006E+00   6.116210285871476E+00   6.193142740564636E+00
   6.271042886411061E+00   6.349922895467023E+00   6.429795092894421E+00
   6.510671958886603E+00   6.592566130618421E+00   6.675490404220833E+00
   6.759457736780297E+00   6.844481248363354E+00   6.930574224066675E+00
   7.017750116092862E+00   7.106022545852419E+00   7.195405306092080E+00
   7.285912363049984E+00   7.377557858637918E+00   7.470356112651016E+00
   7.564321625005280E+00   7.659469078003183E+00   7.755813338627836E+00
   7.853369460865972E+00   7.952152688060168E+00   8.052178455290660E+00
   8.153462391787075E+00   8.256020323370555E+00   8.359868274926566E+00
   8.465022472908810E+00   8.571499347874676E+00   8.679315537052497E+00
   8.788487886941189E+00   8.899033455942533E+00   9.010969517026584E+00
   9.124313560430638E+00   9.239083296392069E+00   9.355296657915622E+00
   9.472971803575476E+00   9.592127120352538E+00   9.712781226507499E+00
   9.834952974489909E+00   9.958661453883950E+00   1.008392599439121E+01
   1.021076616885100E+01   1.033920179629864E+01   1.046925294506223E+01
   1.060093993589834E+01   1.073428334516721E+01   1.086930400804783E+01
   1.100602302179348E+01   1.114446174902822E+01   1.128464182108483E+01
   1.142658514138476E+01   1.157031388886060E+01   1.171585052142156E+01
   1.186321777946258E+01   1.201243868941754E+01   1.216353656735722E+01
   1.231653502263245E+01   1.247145796156316E+01   1.262832959117375E+01
   1.278717442297549E+01   1.294801727679653E+01   1.311088328466000E+01
   1.327579789471101E+01   1.344278687519289E+01   1.361187631847358E+01
   1.378309264512261E+01   1.395646260803935E+01   1.413201329663326E+01
   1.430977214105656E+01   1.448976691649036E+01   1.467202574748453E+01
   1.485657711235219E+01   1.504344984761961E+01   1.523267315253186E+01
   1.542427659361531E+01   1.561829010929744E+01   1.581474401458480E+01
   1.601366900579979E+01   1.621509616537701E+01   1.641905696671993E+01
   1.662558327911874E+01   1.683470737272990E+01   1.704646192361855E+01
   1.726088001886405E+01   1.747799516173004E+01   1.769784127689931E+01
   1.792045271577461E+01   1.814586426184622E+01   1.837411113612678E+01
   1.860522900265479E+01   1.883925397406709E+01   1.907622261724158E+01
   1.931617195901091E+01   1.955913949194790E+01   1.980516318022387E+01
   2.005428146554068E+01   2.030653327313721E+01   2.056195801787165E+01
   2.082059561038001E+01   2.108248646331232E+01   2.134767149764718E+01
   2.161619214908570E+01   2.188809037452602E+01   2.216340865861903E+01
   2.244219002040675E+01   2.272447802004415E+01   2.301031676560547E+01
   2.329975091997629E+01   2.359282570783207E+01   2.388958692270467E+01
   2.419008093413768E+01   2.449435469493174E+01   2.480245574848106E+01
   2.511443223620206E+01   2.543033290505567E+01   2.575020711516412E+01
   2.607410484752349E+01   2.640207671181349E+01   2.673417395430516E+01
   2.707044846586828E+01   2.741095279007945E+01   2.775574013143206E+01
   2.810486436364972E+01   2.845838003810400E+01   2.881634239233825E+01
   2.917880735869861E+01   2.954583157307349E+01   2.991747238374314E+01
   3.029378786034033E+01   3.067483680292388E+01   3.106067875116633E+01
   3.145137399365706E+01   3.184698357732265E+01   3.224756931696540E+01
   3.265319380492210E+01   3.306392042084425E+01   3.347981334160121E+01
   3.390093755130803E+01   3.432735885147924E+01   3.475914387131054E+01
   3.519636007808977E+01   3.563907578773872E+01   3.608736017548779E+01
   3.654128328668459E+01   3.700091604773875E+01   3.746633027720431E+01
   3.793759869700151E+01   3.841479494377978E+01   3.889799358042353E+01
   3.938727010770280E+01   3.988270097607043E+01   4.038436359760751E+01
   4.089233635811939E+01   4.140669862938331E+01   4.192753078155067E+01
   4.245491419570487E+01   4.298893127657730E+01   4.352966546542341E+01
   4.407720125306026E+01   4.463162419306867E+01   4.519302091516101E+01
   4.576147913871721E+01   4.633708768649132E+01   4.691993649848998E+01
   4.751011664602589E+01   4.810772034594782E+01   4.871284097504968E+01
   4.932557308466098E+01   4.994601241542041E+01   5.057425591223572E+01
   5.121040173943142E+01   5.185454929608724E+01   5.250679923156952E+01
   5.316725346125764E+01   5.383601518246871E+01   5.451318889058226E+01
   5.519888039536785E+01   5.589319683751827E+01   5.659624670539015E+01
   5.730813985195569E+01   5.802898751196743E+01   5.875890231933874E+01
   5.949799832474343E+01   6.024639101343597E+01   6.100419732329659E+01
   6.177153566310299E+01   6.254852593103185E+01   6.333528953339346E+01
   6.413194940360131E+01   6.493863002138093E+01   6.575545743222007E+01
   6.658255926706344E+01   6.742006476225563E+01   6.826810477973412E+01
   6.912681182747697E+01   6.999632008020744E+01   7.087676540035902E+01
   7.176828535930436E+01   7.267101925885081E+01   7.358510815300677E+01
   7.451069487002171E+01   7.544792403470322E+01   7.639694209101523E+01
   7.735789732495972E+01   7.833093988774712E+01   7.931622181925751E+01
   8.031389707179719E+01   8.132412153415429E+01   8.234705305595632E+01
   8.338285147233474E+01   8.443167862889943E+01   8.549369840702740E+01
   8.656907674946982E+01   8.765798168628048E+01   8.876058336107120E+01
   8.987705405759689E+01   9.100756822667529E+01   9.215230251344552E+01