<UPF version="2.0.1">
  <PP_INFO>
    Generated using "atomic" code by A. Dal Corso  v.7.2
    Author: ADC
    Generation date: 31May2024
    Pseudopotential type: USPP
    Element: Tc
    Functional: PBE
    Suggested minimum cutoff for wavefunctions:  57. Ry
    Suggested minimum cutoff for charge density: 424. Ry
    The Pseudo was generated with a Scalar-Relativistic Calculation
    Local Potential by smoothing AE potential with Bessel fncs, cutoff radius:   1.3000
    Valence configuration: 
    nl pn  l   occ       Rcut    Rcut US       E pseu
    4S  1  0  2.00      1.100      1.300    -5.393201
    5S  2  0  2.00      1.100      1.300    -0.370625
    4P  2  1  6.00      1.000      1.400    -3.332572
    5P  3  1  0.00      1.000      1.400    -0.102844
    4D  3  2  5.00      1.500      1.700    -0.489614
    Generation configuration:
    4S  1  0  2.00      1.100      1.300    -5.393253
    5S  2  0  2.00      1.100      1.300    -0.370643
    4P  2  1  6.00      1.000      1.400    -3.332614
    5P  3  1  0.00      1.000      1.400    -0.102852
    4D  3  2  5.00      1.500      1.700    -0.489644
    4D  3  2  0.00      1.500      1.700     1.000000
    Pseudization used: troullier-martins
    <PP_INPUTFILE>
@input
title='Tc',
zed=43.,
rel=1,
config='[Kr] 5s2 5p0 4d5',
iswitch=3,
dft='PBE'
/
@inputp
lpaw=.false.,
pseudotype=3,
file_pseudopw='Tc.pbe-spn-rrkjus_psl.1.0.0.UPF',
author='ADC',
lloc=-1,
rcloc=1.3,
which_augfun='PSQ',
rmatch_augfun_nc=.true.,
nlcc=.true.,
new_core_ps=.true.,
rcore=1.2,
tm=.true.
/
6
4S  1  0  2.00  0.00  1.10  1.30  0.0
5S  2  0  2.00  0.00  1.10  1.30  0.0
4P  2  1  6.00  0.00  1.00  1.40  0.0
5P  3  1  0.00  0.00  1.00  1.40  0.0
4D  3  2  5.00  0.00  1.50  1.70  0.0
4D  3  2  0.00  1.00  1.50  1.70  0.0
    </PP_INPUTFILE>
  </PP_INFO>
    <!-- END OF HUMAN READABLE SECTION -->
  <PP_HEADER generated="Generated using 'atomic' code by A. Dal Corso  v.7.2" author="ADC" date="31May2024" comment="" element="Tc" pseudo_type="USPP" relativistic="scalar" is_ultrasoft="true" is_paw="false" is_coulomb="false" has_so="false" has_wfc="false" has_gipaw="false" paw_as_gipaw="false" core_correction="true" functional="PBE" z_valence="15.0000000000000" total_psenergy="-163.247571160977" wfc_cutoff="56.5093633960763" rho_cutoff="423.527013308781" l_max="2" l_max_rho="4" l_local="-1" mesh_size="1231" number_of_wfc="5" number_of_proj="6"/>
  <PP_MESH mesh="1231" dx="1.250000000000000E-002" xmin="-7.00000000000000" rmax="100.000000000000" zmesh="43.0000000000000">
    <PP_R>
   2.120655733847712E-05   2.147330299230284E-05   2.174340389340889E-05
   2.201690224561056E-05   2.229384078358186E-05   2.257426277953276E-05
   2.285821204997066E-05   2.314573296254678E-05   2.343687044298862E-05
   2.373166998211987E-05   2.403017764296830E-05   2.433244006796322E-05
   2.463850448622349E-05   2.494841872093714E-05   2.526223119683390E-05
   2.557999094775159E-05   2.590174762429775E-05   2.622755150160773E-05
   2.655745348720017E-05   2.689150512893158E-05   2.722975862305057E-05
   2.757226682235379E-05   2.791908324444421E-05   2.827026208009336E-05
   2.862585820170886E-05   2.898592717190813E-05   2.935052525220034E-05
   2.971970941177731E-05   3.009353733641507E-05   3.047206743748744E-05
   3.085535886109283E-05   3.124347149729597E-05   3.163646598948590E-05
   3.203440374385156E-05   3.243734693897671E-05   3.284535853555539E-05
   3.325850228622964E-05   3.367684274555106E-05   3.410044528006751E-05
   3.452937607853690E-05   3.496370216226913E-05   3.540349139559841E-05
   3.584881249648722E-05   3.629973504726354E-05   3.675632950549342E-05
   3.721866721498987E-05   3.768682041696062E-05   3.816086226129595E-05
   3.864086681799847E-05   3.912690908875677E-05   3.961906501866451E-05
   4.011741150808703E-05   4.062202642467720E-05   4.113298861554234E-05
   4.165037791956441E-05   4.217427517987477E-05   4.270476225648621E-05
   4.324192203908374E-05   4.378583845997621E-05   4.433659650721108E-05
   4.489428223785371E-05   4.545898279143412E-05   4.603078640356272E-05
   4.660978241971718E-05   4.719606130920312E-05   4.778971467928974E-05
   4.839083528952394E-05   4.899951706622405E-05   4.961585511715600E-05
   5.023994574639429E-05   5.087188646936942E-05   5.151177602810505E-05
   5.215971440664659E-05   5.281580284668388E-05   5.348014386337061E-05
   5.415284126134218E-05   5.483400015093565E-05   5.552372696461333E-05
   5.622212947359311E-05   5.692931680468798E-05   5.764539945735717E-05
   5.837048932097206E-05   5.910469969229903E-05   5.984814529320232E-05
   6.060094228856972E-05   6.136320830446329E-05   6.213506244649885E-05
   6.291662531845643E-05   6.370801904112484E-05   6.450936727138346E-05
   6.532079522152355E-05   6.614242967881320E-05   6.697439902530798E-05
   6.781683325791087E-05   6.866986400868480E-05   6.953362456542001E-05
   7.040824989246082E-05   7.129387665179403E-05   7.219064322440253E-05
   7.309868973188792E-05   7.401815805836435E-05   7.494919187262852E-05
   7.589193665060810E-05   7.684653969809260E-05   7.781315017375052E-05
   7.879191911243515E-05   7.978299944878452E-05   8.078654604111752E-05
   8.180271569563089E-05   8.283166719090069E-05   8.387356130269141E-05
   8.492856082907776E-05   8.599683061588214E-05   8.707853758243210E-05
   8.817385074764204E-05   8.928294125642240E-05   9.040598240642163E-05
   9.154314967510426E-05   9.269462074716954E-05   9.386057554231532E-05
   9.504119624335039E-05   9.623666732466131E-05   9.744717558103673E-05
   9.867291015685443E-05   9.991406257563581E-05   1.011708267699714E-04
   1.024433991118234E-04   1.037319784432093E-04   1.050367661072713E-04
   1.063579659797366E-04   1.076957845007732E-04   1.090504307072468E-04
   1.104221162653832E-04   1.118110555038416E-04   1.132174654472038E-04
   1.146415658498849E-04   1.160835792304702E-04   1.175437309064841E-04
   1.190222490295966E-04   1.205193646212727E-04   1.220353116088694E-04
   1.235703268621878E-04   1.251246502304842E-04   1.266985245799472E-04
   1.282921958316459E-04   1.299059129999558E-04   1.315399282314676E-04
   1.331944968443857E-04   1.348698773684220E-04   1.365663315851919E-04
   1.382841245691185E-04   1.400235247288502E-04   1.417848038492009E-04
   1.435682371336165E-04   1.453741032471758E-04   1.472026843601336E-04
   1.490542661920089E-04   1.509291380562299E-04   1.528275929053400E-04
   1.547499273767715E-04   1.566964418391969E-04   1.586674404394611E-04
   1.606632311501054E-04   1.626841258174888E-04   1.647304402105144E-04
   1.668024940699697E-04   1.689006111584858E-04   1.710251193111264E-04
   1.731763504866126E-04   1.753546408191923E-04   1.775603306711619E-04
   1.797937646860482E-04   1.820552918424598E-04   1.843452655086164E-04
   1.866640434975617E-04   1.890119881230747E-04   1.913894662562798E-04
   1.937968493829723E-04   1.962345136616637E-04   1.987028399823567E-04
   2.012022140260613E-04   2.037330263250565E-04   2.062956723239130E-04
   2.088905524412820E-04   2.115180721324608E-04   2.141786419527475E-04
   2.168726776215890E-04   2.196006000875398E-04   2.223628355940352E-04
   2.251598157459926E-04   2.279919775772518E-04   2.308597636188608E-04
   2.337636219682229E-04   2.367040063591134E-04   2.396813762325754E-04
   2.426961968087094E-04   2.457489391593641E-04   2.488400802817425E-04
   2.519701031729340E-04   2.551394969053832E-04   2.583487567033094E-04
   2.615983840200852E-04   2.648888866165902E-04   2.682207786405496E-04
   2.715945807068708E-04   2.750108199789911E-04   2.784700302512470E-04
   2.819727520322814E-04   2.855195326294988E-04   2.891109262345833E-04
   2.927474940100930E-04   2.964298041771411E-04   3.001584321041831E-04
   3.039339603969184E-04   3.077569789893239E-04   3.116280852358332E-04
   3.155478840046729E-04   3.195169877723754E-04   3.235360167194798E-04
   3.276055988274354E-04   3.317263699767269E-04   3.358989740462297E-04
   3.401240630138191E-04   3.444022970582422E-04   3.487343446622722E-04
   3.531208827171615E-04   3.575625966284054E-04   3.620601804228393E-04
   3.666143368570814E-04   3.712257775273398E-04   3.758952229806017E-04
   3.806234028272192E-04   3.854110558549129E-04   3.902589301442087E-04
   3.951677831853271E-04   4.001383819965438E-04   4.051715032440352E-04
   4.102679333632363E-04   4.154284686817221E-04   4.206539155436348E-04
   4.259450904356786E-04   4.313028201146950E-04   4.367279417368467E-04
   4.422213029884246E-04   4.477837622183007E-04   4.534161885720464E-04
   4.591194621277391E-04   4.648944740334751E-04   4.707421266466137E-04
   4.766633336747735E-04   4.826590203185987E-04   4.887301234163262E-04
   4.948775915901668E-04   5.011023853945296E-04   5.074054774661110E-04
   5.137878526758708E-04   5.202505082829209E-04   5.267944540903481E-04
   5.334207126029984E-04   5.401303191872460E-04   5.469243222327699E-04
   5.538037833163693E-04   5.607697773678343E-04   5.678233928379078E-04
   5.749657318683581E-04   5.821979104641895E-04   5.895210586680220E-04
   5.969363207366612E-04   6.044448553198918E-04   6.120478356415189E-04
   6.197464496826857E-04   6.275419003674996E-04   6.354354057509899E-04
   6.434281992094321E-04   6.515215296330657E-04   6.597166616212349E-04
   6.680148756799868E-04   6.764174684221506E-04   6.849257527699370E-04
   6.935410581600863E-04   7.022647307515930E-04   7.110981336360487E-04
   7.200426470506254E-04   7.290996685937415E-04   7.382706134434408E-04
   7.475569145785132E-04   7.569600230024054E-04   7.664814079699387E-04
   7.761225572168856E-04   7.858849771924316E-04   7.957701932945589E-04
   8.057797501083959E-04   8.159152116475590E-04   8.261781615985340E-04
   8.365702035681318E-04   8.470929613340520E-04   8.577480790986050E-04
   8.685372217456191E-04   8.794620751005833E-04   8.905243461940619E-04
   9.017257635284188E-04   9.130680773479027E-04   9.245530599121237E-04
   9.361825057729732E-04   9.479582320550285E-04   9.598820787394778E-04
   9.719559089516259E-04   9.841816092520073E-04   9.965610899311671E-04
   1.009096285308148E-03   1.021789154032731E-03   1.034641679391477E-03
   1.047655869617624E-03   1.060833758204870E-03   1.074177404225119E-03
   1.087688892650209E-03   1.101370334677696E-03   1.115223868060732E-03
   1.129251657442092E-03   1.143455894692409E-03   1.157838799252650E-03
   1.172402618480916E-03   1.187149628003591E-03   1.202082132070916E-03
   1.217202463917033E-03   1.232512986124554E-03   1.248016090993724E-03
   1.263714200916221E-03   1.279609768753657E-03   1.295705278220847E-03
   1.312003244273892E-03   1.328506213503146E-03   1.345216764531128E-03
   1.362137508415431E-03   1.379271089056715E-03   1.396620183611813E-03
   1.414187502912046E-03   1.431975791886796E-03   1.449987829992405E-03
   1.468226431646474E-03   1.486694446667618E-03   1.505394760720757E-03
   1.524330295768008E-03   1.543504010525246E-03   1.562918900924414E-03
   1.582578000581633E-03   1.602484381271223E-03   1.622641153405667E-03
   1.643051466521619E-03   1.663718509772029E-03   1.684645512424453E-03
   1.705835744365631E-03   1.727292516612416E-03   1.749019181829126E-03
   1.771019134851404E-03   1.793295813216668E-03   1.815852697701237E-03
   1.838693312864202E-03   1.861821227598152E-03   1.885240055686820E-03
   1.908953456369740E-03   1.932965134914013E-03   1.957278843193265E-03
   1.981898380273880E-03   2.006827593008617E-03   2.032070376637685E-03
   2.057630675397379E-03   2.083512483136389E-03   2.109719843939826E-03
   2.136256852761138E-03   2.163127656061943E-03   2.190336452459923E-03
   2.217887493384876E-03   2.245785083742996E-03   2.274033582589537E-03
   2.302637403809915E-03   2.331601016809389E-03   2.360928947211420E-03
   2.390625777564800E-03   2.420696148059690E-03   2.451144757252660E-03
   2.481976362800842E-03   2.513195782205333E-03   2.544807893563929E-03
   2.576817636333347E-03   2.609230012101018E-03   2.642050085366599E-03
   2.675282984333312E-03   2.708933901709232E-03   2.743008095518663E-03
   2.777510889923713E-03   2.812447676056202E-03   2.847823912860045E-03
   2.883645127944214E-03   2.919916918446448E-03   2.956644951907806E-03
   2.993834967158238E-03   3.031492775213295E-03   3.069624260182098E-03
   3.108235380186755E-03   3.147332168293319E-03   3.186920733454476E-03
   3.227007261464077E-03   3.267598015923678E-03   3.308699339221247E-03
   3.350317653522170E-03   3.392459461772731E-03   3.435131348716206E-03
   3.478339981921746E-03   3.522092112826200E-03   3.566394577789035E-03
   3.611254299160535E-03   3.656678286363434E-03   3.702673636988146E-03
   3.749247537901786E-03   3.796407266371126E-03   3.844160191199687E-03
   3.892513773879129E-03   3.941475569755120E-03   3.991053229207878E-03
   4.041254498847562E-03   4.092087222724688E-03   4.143559343555779E-03
   4.195678903964438E-03   4.248454047738016E-03   4.301893021100101E-03
   4.356004173999003E-03   4.410795961412449E-03   4.466276944668702E-03
   4.522455792784270E-03   4.579341283818467E-03   4.636942306245006E-03
   4.695267860340825E-03   4.754327059592420E-03   4.814129132119829E-03
   4.874683422118555E-03   4.935999391319609E-03   4.998086620467922E-03
   5.060954810819371E-03   5.124613785656602E-03   5.189073491823950E-03
   5.254344001281649E-03   5.320435512679593E-03   5.387358352950904E-03
   5.455122978925528E-03   5.523739978964144E-03   5.593220074612610E-03
   5.663574122277228E-03   5.734813114921082E-03   5.806948183781712E-03
   5.879990600110384E-03   5.953951776933259E-03   6.028843270834689E-03
   6.104676783762962E-03   6.181464164858760E-03   6.259217412306603E-03
   6.337948675209598E-03   6.417670255487749E-03   6.498394609800172E-03
   6.580134351491463E-03   6.662902252562561E-03   6.746711245666405E-03
   6.831574426128673E-03   6.917505053993969E-03   7.004516556097726E-03
   7.092622528164171E-03   7.181836736930697E-03   7.272173122298928E-03
   7.363645799512868E-03   7.456269061364435E-03   7.550057380426739E-03
   7.645025411315448E-03   7.741187992978597E-03   7.838560151015219E-03
   7.937157100023112E-03   8.036994245976153E-03   8.138087188631522E-03
   8.240451723967182E-03   8.344103846650040E-03   8.449059752535149E-03
   8.555335841196336E-03   8.662948718488677E-03   8.771915199143188E-03
   8.882252309394163E-03   8.993977289639566E-03   9.107107597134862E-03
   9.221660908720768E-03   9.337655123585274E-03   9.455108366060448E-03
   9.574038988454386E-03   9.694465573918804E-03   9.816406939352689E-03
   9.939882138342484E-03   1.006491046413924E-02   1.019151145267324E-02
   1.031970488560651E-02   1.044951079342376E-02   1.058094945856218E-02
   1.071404141858060E-02   1.084880746936857E-02   1.098526866839569E-02
   1.112344633800196E-02   1.126336206872936E-02   1.140503772269550E-02
   1.154849543700953E-02   1.169375762723119E-02   1.184084699087324E-02
   1.198978651094801E-02   1.214059945955851E-02   1.229330940153483E-02
   1.244794019811606E-02   1.260451601067878E-02   1.276306130451225E-02
   1.292360085264120E-02   1.308615973969665E-02   1.325076336583542E-02
   1.341743745070900E-02   1.358620803748223E-02   1.375710149690268E-02
   1.393014453142106E-02   1.410536417936357E-02   1.428278781915670E-02
   1.446244317360512E-02   1.464435831422349E-02   1.482856166562264E-02
   1.501508200995098E-02   1.520394849139180E-02   1.539519062071707E-02
   1.558883827989859E-02   1.578492172677708E-02   1.598347159979006E-02
   1.618451892275912E-02   1.638809510973753E-02   1.659423196991867E-02
   1.680296171260634E-02   1.701431695224749E-02   1.722833071352833E-02
   1.744503643653447E-02   1.766446798197602E-02   1.788665963647839E-02
   1.811164611793966E-02   1.833946258095528E-02   1.857014462231110E-02
   1.880372828654541E-02   1.904025007158098E-02   1.927974693442792E-02
   1.952225629695832E-02   1.976781605175345E-02   2.001646456802461E-02
   2.026824069760833E-02   2.052318378103711E-02   2.078133365368642E-02
   2.104273065199907E-02   2.130741561978786E-02   2.157542991461752E-02
   2.184681541426689E-02   2.212161452327243E-02   2.239987017955400E-02
   2.268162586112402E-02   2.296692559288097E-02   2.325581395348838E-02
   2.354833608234035E-02   2.384453768661464E-02   2.414446504841455E-02
   2.444816503200057E-02   2.475568509111302E-02   2.506707327638679E-02
   2.538237824285935E-02   2.570164925757321E-02   2.602493620727397E-02
   2.635228960620527E-02   2.668376060400169E-02   2.701940099368101E-02
   2.735926321973700E-02   2.770340038633392E-02   2.805186626560421E-02
   2.840471530605047E-02   2.876200264105314E-02   2.912378409748523E-02
   2.949011620443535E-02   2.986105620204051E-02   3.023666205043004E-02
   3.061699243878191E-02   3.100210679449310E-02   3.139206529246520E-02
   3.178692886450691E-02   3.218675920885469E-02   3.259161879981334E-02
   3.300157089751762E-02   3.341667955781686E-02   3.383700964228376E-02
   3.426262682834921E-02   3.469359761956444E-02   3.512998935599240E-02
   3.557187022472975E-02   3.601930927056125E-02   3.647237640674812E-02
   3.693114242595218E-02   3.739567901129729E-02   3.786605874757001E-02
   3.834235513256114E-02   3.882464258854985E-02   3.931299647393238E-02
   3.980749309499686E-02   4.030820971784642E-02   4.081522458047208E-02
   4.132861690497765E-02   4.184846690995836E-02   4.237485582303511E-02
   4.290786589354652E-02   4.344758040540054E-02   4.399408369008768E-02
   4.454746113985807E-02   4.510779922106407E-02   4.567518548767088E-02
   4.624970859493704E-02   4.683145831326692E-02   4.742052554223759E-02
   4.801700232480203E-02   4.862098186167108E-02   4.923255852587618E-02
   4.985182787751535E-02   5.047888667868473E-02   5.111383290859774E-02
   5.175676577889463E-02   5.240778574914440E-02   5.306699454254196E-02
   5.373449516180245E-02   5.441039190525563E-02   5.509479038314282E-02
   5.578779753411858E-02   5.648952164196022E-02   5.720007235248722E-02
   5.791956069069376E-02   5.864809907809650E-02   5.938580135030065E-02
   6.013278277478715E-02   6.088916006892331E-02   6.165505141820019E-02
   6.243057649469933E-02   6.321585647579178E-02   6.401101406307222E-02
   6.481617350153143E-02   6.563146059896981E-02   6.645700274565501E-02
   6.729292893422702E-02   6.813936977985355E-02   6.899645754063881E-02
   6.986432613828918E-02   7.074311117903873E-02   7.163294997483798E-02
   7.253398156480916E-02   7.344634673697137E-02   7.437018805023900E-02
   7.530564985669680E-02   7.625287832415524E-02   7.721202145898952E-02
   7.818322912926583E-02   7.916665308815862E-02   8.016244699766224E-02
   8.117076645260099E-02   8.219176900494118E-02   8.322561418840885E-02
   8.427246354341730E-02   8.533248064230806E-02   8.640583111490943E-02
   8.749268267441655E-02   8.859320514359680E-02   8.970757048132504E-02
   9.083595280945242E-02   9.197852844001346E-02   9.313547590277503E-02
   9.430697597313201E-02   9.549321170035382E-02   9.669436843618627E-02
   9.791063386381309E-02   9.914219802718184E-02   1.003892533606987E-01
   1.016519947192967E-01   1.029306194088822E-01   1.042253272171643E-01
   1.055363204448722E-01   1.068638039373649E-01   1.082079851166389E-01
   1.095690740137382E-01   1.109472833015722E-01   1.123428283281461E-01
   1.137559271502095E-01   1.151868005673283E-01   1.166356721563852E-01
   1.181027683065136E-01   1.195883182544718E-01   1.210925541204617E-01
   1.226157109443975E-01   1.241580267226321E-01   1.257197424451435E-01
   1.273011021331907E-01   1.289023528774424E-01   1.305237448765851E-01
   1.321655314764174E-01   1.338279692094357E-01   1.355113178349180E-01
   1.372158403795121E-01   1.389418031783332E-01   1.406894759165802E-01
   1.424591316716741E-01   1.442510469559272E-01   1.460655017597481E-01
   1.479027795953915E-01   1.497631675412573E-01   1.516469562867469E-01
   1.535544401776844E-01   1.554859172623087E-01   1.574416893378437E-01
   1.594220619976554E-01   1.614273446790009E-01   1.634578507113790E-01
   1.655138973654884E-01   1.675958059028017E-01   1.697039016257636E-01
   1.718385139286198E-01   1.739999763488856E-01   1.761886266194616E-01
   1.784048067214054E-01   1.806488629373669E-01   1.829211459056952E-01
   1.852220106752274E-01   1.875518167607645E-01   1.899109281992478E-01
   1.922997136066389E-01   1.947185462355179E-01   1.971678040334041E-01
   1.996478697018116E-01   2.021591307560467E-01   2.047019795857584E-01
   2.072768135162498E-01   2.098840348705611E-01   2.125240510323332E-01
   2.151972745094627E-01   2.179041229985566E-01   2.206450194501984E-01
   2.234203921350351E-01   2.262306747106951E-01   2.290763062895486E-01
   2.319577315073192E-01   2.348754005925595E-01   2.378297694370001E-01
   2.408212996667836E-01   2.438504587145949E-01   2.469177198926979E-01
   2.500235624668921E-01   2.531684717313987E-01   2.563529390846885E-01
   2.595774621062645E-01   2.628425446344090E-01   2.661486968449099E-01
   2.694964353307767E-01   2.728862831829584E-01   2.763187700720792E-01
   2.797944323311986E-01   2.833138130396158E-01   2.868774621077270E-01
   2.904859363629491E-01   2.941397996367263E-01   2.978396228526289E-01
   3.015859841155614E-01   3.053794688020936E-01   3.092206696519253E-01
   3.131101868605046E-01   3.170486281728085E-01   3.210366089783047E-01
   3.250747524071079E-01   3.291636894273444E-01   3.333040589437427E-01
   3.374965078974634E-01   3.417416913671849E-01   3.460402726714615E-01
   3.503929234723673E-01   3.548003238804457E-01   3.592631625609773E-01
   3.637821368415856E-01   3.683579528211959E-01   3.729913254803646E-01
   3.776829787929964E-01   3.824336458394665E-01   3.872440689211663E-01
   3.921149996764893E-01   3.970471991982759E-01   4.020414381527360E-01
   4.070984968998672E-01   4.122191656153872E-01   4.174042444142012E-01
   4.226545434754202E-01   4.279708831689548E-01   4.333540941836981E-01
   4.388050176573230E-01   4.443245053077129E-01   4.499134195660422E-01
   4.555726337115349E-01   4.613030320079147E-01   4.671055098415738E-01
   4.729809738614795E-01   4.789303421208380E-01   4.849545442205446E-01
   4.910545214544332E-01   4.972312269563571E-01   5.034856258491178E-01
   5.098186953952668E-01   5.162314251498057E-01   5.227248171148052E-01
   5.292998858959707E-01   5.359576588611765E-01   5.426991763009935E-01
   5.495254915912379E-01   5.564376713575616E-01   5.634367956421160E-01
   5.705239580723108E-01   5.777002660316941E-01   5.849668408329854E-01
   5.923248178932813E-01   5.997753469114668E-01   6.073195920478600E-01
   6.149587321061116E-01   6.226939607173985E-01   6.305264865269281E-01
   6.384575333827933E-01   6.464883405272018E-01   6.546201627901083E-01
   6.628542707852859E-01   6.711919511088613E-01   6.796345065403477E-01
   6.881832562462086E-01   6.968395359859774E-01   7.056046983209753E-01
   7.144801128256496E-01   7.234671663015738E-01   7.325672629941384E-01
   7.417818248119654E-01   7.511122915490859E-01   7.605601211099110E-01
   7.701267897370309E-01   7.798137922418825E-01   7.896226422383155E-01
   7.995548723790976E-01   8.096120345953964E-01   8.197957003392689E-01
   8.301074608292068E-01   8.405489272987663E-01   8.511217312483258E-01
   8.618275247000138E-01   8.726679804558376E-01   8.836447923590647E-01
   8.947596755588872E-01   9.060143667784183E-01   9.174106245860594E-01
   9.289502296702780E-01   9.406349851178468E-01   9.524667166955773E-01
   9.644472731355993E-01   9.765785264242328E-01   9.888623720944838E-01
   1.001300729522231E+00   1.013895542226129E+00   1.026648778171285E+00
   1.039562430076764E+00   1.052638515726948E+00   1.065879078286825E+00
   1.079286186621232E+00   1.092861935618124E+00   1.106608446515900E+00
   1.120527867234857E+00   1.134622372712801E+00   1.148894165244889E+00
   1.163345474827739E+00   1.177978559507876E+00   1.192795705734552E+00
   1.207799228717011E+00   1.222991472786244E+00   1.238374811761294E+00
   1.253951649320176E+00   1.269724419375448E+00   1.285695586454522E+00
   1.301867646084748E+00   1.318243125183345E+00   1.334824582452238E+00
   1.351614608777861E+00   1.368615827635986E+00   1.385830895501651E+00
   1.403262502264233E+00   1.420913371647753E+00   1.438786261636464E+00
   1.456883964905787E+00   1.475209309258682E+00   1.493765158067486E+00
   1.512554410721326E+00   1.531580003079157E+00   1.550844907928493E+00
   1.570352135449910E+00   1.590104733687399E+00   1.610105789024620E+00
   1.630358426667161E+00   1.650865811130859E+00   1.671631146736257E+00
   1.692657678109295E+00   1.713948690688275E+00   1.735507511237232E+00
   1.757337508365737E+00   1.779442093055253E+00   1.801824719192114E+00
   1.824488884107190E+00   1.847438129122358E+00   1.870676040103844E+00
   1.894206248022515E+00   1.918032429521233E+00   1.942158307489332E+00
   1.966587651644327E+00   1.991324279120946E+00   2.016372055067556E+00
   2.041734893250113E+00   2.067416756663682E+00   2.093421658151672E+00
   2.119753661032847E+00   2.146416879736230E+00   2.173415480443992E+00
   2.200753681742422E+00   2.228435755281092E+00   2.256466026440313E+00
   2.284848875006978E+00   2.313588735858927E+00   2.342690099657887E+00
   2.372157513551158E+00   2.401995581882113E+00   2.432208966909633E+00
   2.462802389536603E+00   2.493780630047548E+00   2.525148528855574E+00
   2.556910987258689E+00   2.589072968205636E+00   2.621639497071377E+00
   2.654615662442303E+00   2.688006616911343E+00   2.721817577883068E+00
   2.756053828388915E+00   2.790720717912685E+00   2.825823663226394E+00
   2.861368149236666E+00   2.897359729841755E+00   2.933804028799353E+00
   2.970706740605324E+00   3.008073631383465E+00   3.045910539786482E+00
   3.084223377908295E+00   3.123018132207803E+00   3.162300864444302E+00
   3.202077712624622E+00   3.242354891962216E+00   3.283138695848302E+00
   3.324435496835210E+00   3.366251747632116E+00   3.408593982113283E+00
   3.451468816338994E+00   3.494882949589325E+00   3.538843165410921E+00
   3.583356332676948E+00   3.628429406660351E+00   3.674069430120642E+00
   3.720283534404341E+00   3.767078940559264E+00   3.814462960462834E+00
   3.862442997964561E+00   3.911026550042921E+00   3.960221207976771E+00
   4.010034658531496E+00   4.060474685160100E+00   4.111549169219360E+00
   4.163266091201322E+00   4.215633531980265E+00   4.268659674075349E+00
   4.322352802929166E+00   4.376721308202337E+00   4.431773685084423E+00
   4.487518535621316E+00   4.543964570059324E+00   4.601120608206176E+00
   4.658995580809113E+00   4.717598530950350E+00   4.776938615460078E+00
   4.837025106347224E+00   4.897867392248245E+00   4.959474979894094E+00
   5.021857495595682E+00   5.085024686748004E+00   5.148986423353190E+00
   5.213752699562723E+00   5.279333635239026E+00   5.345739477536722E+00
   5.412980602503774E+00   5.481067516702758E+00   5.550010858852550E+00
   5.619821401490623E+00   5.690510052656293E+00   5.762087857595124E+00
   5.834566000484758E+00   5.907955806182489E+00   5.982268741994766E+00
   6.057516419469001E+00   6.133710596207890E+00   6.210863177706561E+00
   6.288986219212855E+00   6.368091927610943E+00   6.448192663328703E+00
   6.529300942269059E+00   6.611429437765603E+00   6.694590982562862E+00
   6.778798570821399E+00   6.864065360148198E+00   6.950404673652572E+00
   7.037830002027904E+00   7.126355005659635E+00   7.215993516759684E+00
   7.306759541527779E+00   7.398667262339955E+00   7.491731039964571E+00
   7.585965415806234E+00   7.681385114177882E+00   7.778005044601519E+00
   7.875840304137850E+00   7.974906179745219E+00   8.075218150668251E+00
   8.176791890856483E+00   8.279643271413475E+00   8.383788363076691E+00
   8.489243438728579E+00   8.596024975939276E+00   8.704149659541214E+00
   8.813634384236183E+00   8.924496257235168E+00   9.036752600931367E+00
   9.150420955606887E+00   9.265519082173395E+00   9.382064964947338E+00
   9.500076814460012E+00   9.619573070302994E+00   9.740572404009395E+00
   9.863093721971270E+00   9.987156168393822E+00   1.011277912828671E+01
   1.023998223049300E+01   1.036878535075621E+01   1.049920861482594E+01
   1.063127240160254E+01   1.076499734632139E+01   1.090040434377714E+01
   1.103751455158866E+01   1.117634939350487E+01   1.131693056275227E+01
   1.145928002542458E+01   1.160342002391493E+01   1.174937308039137E+01
   1.189716200031591E+01   1.204680987600796E+01   1.219834009025257E+01
   1.235177631995398E+01   1.250714253983528E+01   1.266446302618441E+01
   1.282376236064742E+01   1.298506543406944E+01   1.314839745038384E+01
   1.331378393055050E+01   1.348125071654341E+01   1.365082397538859E+01
   1.382253020325275E+01   1.399639622958331E+01   1.417244922130064E+01
   1.435071668704288E+01   1.453122648146422E+01   1.471400680958731E+01
   1.489908623121025E+01   1.508649366536927E+01   1.527625839485721E+01
   1.546841007079913E+01   1.566297871728534E+01   1.585999473606269E+01
   1.605948891128497E+01   1.626149241432293E+01   1.646603680863489E+01
   1.667315405469860E+01   1.688287651500515E+01   1.709523695911566E+01
   1.731026856878156E+01   1.752800494312935E+01   1.774848010391050E+01
   1.797172850081744E+01   1.819778501686642E+01   1.842668497384796E+01
   1.865846413784604E+01   1.889315872482661E+01   1.913080540629634E+01
   1.937144131503274E+01   1.961510405088613E+01   1.986183168665471E+01
   2.011166277403353E+01   2.036463634963828E+01   2.062079194110485E+01
   2.088016957326554E+01   2.114280977440309E+01   2.140875358258328E+01
   2.167804255206717E+01   2.195071875980416E+01   2.222682481200646E+01
   2.250640385080645E+01   2.278949956099777E+01   2.307615617686108E+01
   2.336641848907584E+01   2.366033185171887E+01   2.395794218935104E+01
   2.425929600419312E+01   2.456444038339175E+01   2.487342300637705E+01
   2.518629215231247E+01   2.550309670763860E+01   2.582388617371175E+01
   2.614871067453862E+01   2.647762096460837E+01   2.681066843682299E+01
   2.714790513052759E+01   2.748938373964167E+01   2.783515762089264E+01