<UPF version="2.0.1">
  <PP_INFO>
    Generated using "atomic" code by A. Dal Corso  v.7.2
    Author: ADC
    Generation date: 31May2024
    Pseudopotential type: USPP
    Element: Zr
    Functional: PBE
    Suggested minimum cutoff for wavefunctions:  46. Ry
    Suggested minimum cutoff for charge density: 267. Ry
    The Pseudo was generated with a Scalar-Relativistic Calculation
    Local Potential by smoothing AE potential with Bessel fncs, cutoff radius:   1.5000
    Valence configuration: 
    nl pn  l   occ       Rcut    Rcut US       E pseu
    4S  1  0  2.00      1.200      1.300    -4.005968
    5S  2  0  2.00      1.200      1.300    -0.326264
    4P  2  1  6.00      1.200      1.500    -2.385839
    5P  3  1  0.00      1.200      1.500    -0.107985
    4D  3  2  2.00      1.200      1.600    -0.264491
    Generation configuration:
    4S  1  0  2.00      1.200      1.300    -4.006009
    5S  2  0  2.00      1.200      1.300    -0.326276
    4P  2  1  6.00      1.200      1.500    -2.385870
    5P  3  1  0.00      1.200      1.500    -0.107990
    4D  3  2  2.00      1.200      1.600    -0.264515
    4D  3  2  0.00      1.200      1.600     0.500000
    Pseudization used: troullier-martins
    <PP_INPUTFILE>
@input
title='Zr',
zed=40.,
rel=1,
config='[Kr] 5s2 5p0 4d2',
iswitch=3,
dft='PBE'
/
@inputp
lpaw=.false.,
pseudotype=3,
file_pseudopw='Zr.pbe-spn-rrkjus_psl.1.0.0.UPF',
author='ADC',
lloc=-1,
rcloc=1.5,
which_augfun='PSQ',
rmatch_augfun_nc=.true.,
nlcc=.true.,
new_core_ps=.true.,
rcore=1.2,
tm=.true.
/
6
4S  1  0  2.00  0.00  1.20  1.30  0.0
5S  2  0  2.00  0.00  1.20  1.30  0.0
4P  2  1  6.00  0.00  1.20  1.50  0.0
5P  3  1  0.00  0.00  1.20  1.50  0.0
4D  3  2  2.00  0.00  1.20  1.60  0.0
4D  3  2  0.00  0.50  1.20  1.60  0.0
    </PP_INPUTFILE>
  </PP_INFO>
    <!-- END OF HUMAN READABLE SECTION -->
  <PP_HEADER generated="Generated using 'atomic' code by A. Dal Corso  v.7.2" author="ADC" date="31May2024" comment="" element="Zr" pseudo_type="USPP" relativistic="scalar" is_ultrasoft="true" is_paw="false" is_coulomb="false" has_so="false" has_wfc="false" has_gipaw="false" paw_as_gipaw="false" core_correction="true" functional="PBE" z_valence="12.0000000000000" total_psenergy="-98.8696458586503" wfc_cutoff="45.5509410774412" rho_cutoff="267.453095806334" l_max="2" l_max_rho="4" l_local="-1" mesh_size="1225" number_of_wfc="5" number_of_proj="6"/>
  <PP_MESH mesh="1225" dx="1.250000000000000E-002" xmin="-7.00000000000000" rmax="100.000000000000" zmesh="40.0000000000000">
    <PP_R>
   2.279704913886291E-05   2.308380071672556E-05   2.337415918541456E-05
   2.366816991403135E-05   2.396587884235050E-05   2.426733248799772E-05
   2.457257795371847E-05   2.488166293473778E-05   2.519463572621276E-05
   2.551154523077886E-05   2.583244096619093E-05   2.615737307306046E-05
   2.648639232269025E-05   2.681955012500742E-05   2.715689853659645E-05
   2.749849026883296E-05   2.784437869612008E-05   2.819461786422831E-05
   2.854926249874019E-05   2.890836801360144E-05   2.927199051977936E-05
   2.964018683403032E-05   3.001301448777752E-05   3.039053173610037E-05
   3.077279756683703E-05   3.115987170980124E-05   3.155181464611536E-05
   3.194868761766061E-05   3.235055263664620E-05   3.275747249529900E-05
   3.316951077567479E-05   3.358673185959317E-05   3.400920093869735E-05
   3.443698402464042E-05   3.487014795939997E-05   3.530876042572204E-05
   3.575288995769686E-05   3.620260595146739E-05   3.665797867607257E-05
   3.711907928442717E-05   3.758597982443931E-05   3.805875325026829E-05
   3.853747343372376E-05   3.902221517580830E-05   3.951305421840543E-05
   4.001006725611411E-05   4.051333194823266E-05   4.102292693089315E-05
   4.153893182934835E-05   4.206142727041353E-05   4.259049489506435E-05
   4.312621737119356E-05   4.366867840652799E-05   4.421796276170802E-05
   4.477415626353175E-05   4.533734581836538E-05   4.590761942572268E-05
   4.648506619201502E-05   4.706977634447443E-05   4.766184124525192E-05
   4.826135340569274E-05   4.886840650079168E-05   4.948309538382992E-05
   5.010551610119598E-05   5.073576590739335E-05   5.137394328023647E-05
   5.202014793623823E-05   5.267448084619085E-05   5.333704425094270E-05
   5.400794167737386E-05   5.468727795457213E-05   5.537515923021292E-05
   5.607169298714508E-05   5.677698806018517E-05   5.749115465312340E-05
   5.821430435594284E-05   5.894655016225582E-05   5.968800648695933E-05
   6.043878918411258E-05   6.119901556503958E-05   6.196880441665896E-05
   6.274827602004496E-05   6.353755216922146E-05   6.433675619019250E-05
   6.514601296021246E-05   6.596544892729804E-05   6.679519212998626E-05
   6.763537221734066E-05   6.848612046920921E-05   6.934756981673721E-05
   7.021985486313782E-05   7.110311190472419E-05   7.199747895220607E-05
   7.290309575225419E-05   7.382010380933616E-05   7.474864640782651E-05
   7.568886863439538E-05   7.664091740067857E-05   7.760494146623272E-05
   7.858109146177951E-05   7.956951991274167E-05   8.057038126307566E-05
   8.158383189940370E-05   8.261003017544955E-05   8.364913643678181E-05
   8.470131304586779E-05   8.576672440744337E-05   8.684553699420134E-05
   8.793791937280321E-05   8.904404223021825E-05   9.016407840039326E-05
   9.129820289125858E-05   9.244659291207330E-05   9.360942790111450E-05
   9.478688955371519E-05   9.597916185065409E-05   9.718643108690326E-05
   9.840888590073708E-05   9.964671730320726E-05   1.009001187079890E-04
   1.021692859616017E-04   1.034544173740109E-04   1.047557137496145E-04
   1.060733784186185E-04   1.074076172688085E-04   1.087586387777192E-04
   1.101266540452102E-04   1.115118768264500E-04   1.129145235653167E-04
   1.143348134282168E-04   1.157729683383311E-04   1.172292130102903E-04
   1.187037749852869E-04   1.201968846666297E-04   1.217087753557441E-04
   1.232396832886263E-04   1.247898476727554E-04   1.263595107244704E-04
   1.279489177068164E-04   1.295583169678681E-04   1.311879599795346E-04
   1.328381013768519E-04   1.345089989977705E-04   1.362009139234432E-04
   1.379141105190193E-04   1.396488564749525E-04   1.414054228488277E-04
   1.431840841077146E-04   1.449851181710537E-04   1.468088064540813E-04
   1.486554339118024E-04   1.505252890835140E-04   1.524186641378910E-04
   1.543358549186377E-04   1.562771609907140E-04   1.582428856871437E-04
   1.602333361564096E-04   1.622488234104472E-04   1.642896623732405E-04
   1.663561719300293E-04   1.684486749771367E-04   1.705674984724207E-04
   1.727129734863633E-04   1.748854352538004E-04   1.770852232263030E-04
   1.793126811252175E-04   1.815681569953723E-04   1.838520032594609E-04
   1.861645767731086E-04   1.885062388806317E-04   1.908773554714990E-04
   1.932782970375018E-04   1.957094387306443E-04   1.981711604217626E-04
   2.006638467598789E-04   2.031878872323053E-04   2.057436762255008E-04
   2.083316130866952E-04   2.109521021862884E-04   2.136055529810335E-04
   2.162923800780159E-04   2.190130032994357E-04   2.217678477482065E-04
   2.245573438743781E-04   2.273819275423954E-04   2.302420400992035E-04
   2.331381284432082E-04   2.360706450941053E-04   2.390400482635878E-04
   2.420468019269421E-04   2.450913758955457E-04   2.481742458902753E-04
   2.512958936158396E-04   2.544568068360469E-04   2.576574794500185E-04
   2.608984115693626E-04   2.641801095963164E-04   2.675030863028732E-04
   2.708678609109040E-04   2.742749591732869E-04   2.777249134560577E-04
   2.812182628215916E-04   2.847555531128344E-04   2.883373370385908E-04
   2.919641742598861E-04   2.956366314774154E-04   2.993552825200906E-04
   3.031207084347025E-04   3.069334975767112E-04   3.107942457021771E-04
   3.147035560608500E-04   3.186620394904267E-04   3.226703145119968E-04
   3.267290074266873E-04   3.308387524135232E-04   3.350001916285207E-04
   3.392139753050234E-04   3.434807618553036E-04   3.478012179734408E-04
   3.521760187394931E-04   3.566058477249814E-04   3.610913970996970E-04
   3.656333677398556E-04   3.702324693376103E-04   3.748894205119426E-04
   3.796049489209486E-04   3.843797913755358E-04   3.892146939545523E-04
   3.941104121213625E-04   3.990677108418902E-04   4.040873647041468E-04
   4.091701580392607E-04   4.143168850440314E-04   4.195283499050243E-04
   4.248053669242267E-04   4.301487606462846E-04   4.355593659873378E-04
   4.410380283654791E-04   4.465856038328513E-04   4.522029592094075E-04
   4.578909722183545E-04   4.636505316232971E-04   4.694825373671102E-04
   4.753879007125564E-04   4.813675443846733E-04   4.874224027149499E-04
   4.935534217873196E-04   4.997615595859858E-04   5.060477861451098E-04
   5.124130837003815E-04   5.188584468424935E-04   5.253848826725508E-04
   5.319934109594294E-04   5.386850642991193E-04   5.454608882760693E-04
   5.523219416265611E-04   5.592692964041400E-04   5.663040381471242E-04
   5.734272660482232E-04   5.806400931262893E-04   5.879436464002277E-04
   5.953390670650970E-04   6.028275106704219E-04   6.104101473007508E-04
   6.180881617584850E-04   6.258627537490037E-04   6.337351380681236E-04
   6.417065447919108E-04   6.497782194688837E-04   6.579514233146328E-04
   6.662274334088872E-04   6.746075428950622E-04   6.830930611823143E-04
   6.916853141501394E-04   7.003856443555456E-04   7.091954112428275E-04
   7.181159913559859E-04   7.271487785538119E-04   7.362951842276822E-04
   7.455566375220927E-04   7.549345855579625E-04   7.644304936587524E-04
   7.740458455794224E-04   7.837821437382722E-04   7.936409094516988E-04
   8.036236831719017E-04   8.137320247275858E-04   8.239675135676841E-04
   8.343317490081519E-04   8.448263504818639E-04   8.554529577916508E-04
   8.662132313665257E-04   8.771088525211260E-04   8.881415237184242E-04
   8.993129688357417E-04   9.106249334341059E-04   9.220791850310004E-04
   9.336775133765406E-04   9.454217307331271E-04   9.573136721586165E-04
   9.693551957930503E-04   9.815481831489954E-04   9.938945394055330E-04
   1.006396193705946E-03   1.019055099459156E-03   1.031873234644939E-03
   1.044852602122998E-03   1.057995229945908E-03   1.071303171676005E-03
   1.084778506706259E-03   1.098423340585186E-03   1.112239805345838E-03
   1.126230059838946E-03   1.140396290070235E-03   1.154740709542003E-03
   1.169265559598974E-03   1.183973109778523E-03   1.198865658165287E-03
   1.213945531750249E-03   1.229215086794340E-03   1.244676709196599E-03
   1.260332814866985E-03   1.276185850103860E-03   1.292238291976235E-03
   1.308492648710810E-03   1.324951460083896E-03   1.341617297818253E-03
   1.358492765984937E-03   1.375580501410181E-03   1.392883174087411E-03
   1.410403487594434E-03   1.428144179515882E-03   1.446108021870962E-03
   1.464297821546588E-03   1.482716420735969E-03   1.501366697382699E-03
   1.520251565630449E-03   1.539373976278306E-03   1.558736917241836E-03
   1.578343414019960E-03   1.598196530167690E-03   1.618299367774814E-03
   1.638655067950609E-03   1.659266811314640E-03   1.680137818493745E-03
   1.701271350625256E-03   1.722670709866565E-03   1.744339239911092E-03
   1.766280326510740E-03   1.788497398004932E-03   1.810993925856287E-03
   1.833773425193053E-03   1.856839455358348E-03   1.880195620466310E-03
   1.903845569965259E-03   1.927792999207918E-03   1.952041650028829E-03
   1.976595311329017E-03   2.001457819668013E-03   2.026633059863332E-03
   2.052124965597471E-03   2.077937520032564E-03   2.104074756432760E-03
   2.130540758794421E-03   2.157339662484263E-03   2.184475654885511E-03
   2.211952976052183E-03   2.239775919371618E-03   2.267948832235313E-03
   2.296476116718223E-03   2.325362230266588E-03   2.354611686394417E-03
   2.384229055388741E-03   2.414218965023721E-03   2.444586101283752E-03
   2.475335209095659E-03   2.506471093070094E-03   2.537998618252277E-03
   2.569922710882160E-03   2.602248359164167E-03   2.634980614046610E-03
   2.668124590010905E-03   2.701685465870733E-03   2.735668485581223E-03
   2.770078959058348E-03   2.804922263008595E-03   2.840203841769094E-03
   2.875929208158311E-03   2.912103944337424E-03   2.948733702682563E-03
   2.985824206667992E-03   3.023381251760418E-03   3.061410706324549E-03
   3.099918512540031E-03   3.138910687329932E-03   3.178393323300891E-03
   3.218372589695106E-03   3.258854733354292E-03   3.299846079695756E-03
   3.341353033700761E-03   3.383382080915318E-03   3.425939788463562E-03
   3.469032806073882E-03   3.512667867117954E-03   3.556851789662841E-03
   3.601591477536332E-03   3.646893921405685E-03   3.692766199869921E-03
   3.739215480565877E-03   3.786249021288165E-03   3.833874171123213E-03
   3.882098371597575E-03   3.930929157840692E-03   3.980374159762257E-03
   4.030441103244420E-03   4.081137811348961E-03   4.132472205539664E-03
   4.184452306920064E-03   4.237086237486754E-03   4.290382221398470E-03
   4.344348586261130E-03   4.398993764429040E-03   4.454326294322462E-03
   4.510354821761771E-03   4.567088101318367E-03   4.624534997682608E-03
   4.682704487048927E-03   4.741605658518383E-03   4.801247715518854E-03
   4.861639977243089E-03   4.922791880104852E-03   4.984712979213381E-03
   5.047412949866386E-03   5.110901589061852E-03   5.175188817028817E-03
   5.240284678777447E-03   5.306199345668579E-03   5.372943117003016E-03
   5.440526421630823E-03   5.508959819580848E-03   5.578254003710746E-03
   5.648419801377773E-03   5.719468176130563E-03   5.791410229422222E-03
   5.864257202344942E-03   5.938020477386455E-03   6.012711580208556E-03
   6.088342181448020E-03   6.164924098540163E-03   6.242469297565340E-03
   6.320989895118663E-03   6.400498160203254E-03   6.481006516147291E-03
   6.562527542545184E-03   6.645073977223167E-03   6.728658718229598E-03
   6.813294825850318E-03   6.898995524649331E-03   6.985774205535185E-03
   7.073644427853324E-03   7.162619921504754E-03   7.252714589091385E-03
   7.343942508088323E-03   7.436317933043517E-03   7.529855297805055E-03
   7.624569217776484E-03   7.720474492200499E-03   7.817586106471347E-03
   7.915919234476333E-03   8.015489240966768E-03   8.116311683958745E-03
   8.218402317164105E-03   8.321777092451991E-03   8.426452162341360E-03
   8.532443882524844E-03   8.639768814424364E-03   8.748443727778887E-03
   8.858485603264720E-03   8.969911635148793E-03   9.082739233975285E-03
   9.196986029286060E-03   9.312669872375327E-03   9.429808839078926E-03
   9.548421232598726E-03   9.668525586362534E-03   9.790140666919977E-03
   9.913285476874825E-03   1.003797925785417E-02   1.016424149351498E-02
   1.029209191258846E-02   1.042155049196271E-02   1.055263745980414E-02
   1.068537329871817E-02   1.081977874894969E-02   1.095587481162373E-02
   1.109368275202700E-02   1.123322410293054E-02   1.137452066795434E-02
   1.151759452497415E-02   1.166246802957121E-02   1.180916381852537E-02
   1.195770481335211E-02   1.210811422388407E-02   1.226041555189766E-02
   1.241463259478524E-02   1.257078944927353E-02   1.272891051518873E-02
   1.288902049926911E-02   1.305114441902540E-02   1.321530760664994E-02
   1.338153571297476E-02   1.354985471147968E-02   1.372029090235067E-02
   1.389287091658929E-02   1.406762172017390E-02   1.424457061827308E-02
   1.442374525951217E-02   1.460517364029340E-02   1.478888410917038E-02
   1.497490537127764E-02   1.516326649281584E-02   1.535399690559345E-02
   1.554712641162551E-02   1.574268518779025E-02   1.594070379054434E-02
   1.614121316069731E-02   1.634424462824619E-02   1.654982991727086E-02
   1.675800115089099E-02   1.696879085628537E-02   1.718223196977431E-02
   1.739835784196606E-02   1.761720224296784E-02   1.783879936766257E-02
   1.806318384105181E-02   1.829039072366605E-02   1.852045551704296E-02
   1.875341416927455E-02   1.898930308062422E-02   1.922815910921427E-02
   1.947001957678513E-02   1.971492227452692E-02   1.996290546898443E-02
   2.021400790803632E-02   2.046826882694956E-02   2.072572795451002E-02
   2.098642551923019E-02   2.125040225563496E-02   2.151769941062645E-02
   2.178835874992895E-02   2.206242256461489E-02   2.233993367771290E-02
   2.262093545089900E-02   2.290547179127195E-02   2.319358715821383E-02
   2.348532657033690E-02   2.378073561251786E-02   2.407986044302055E-02
   2.438274780070833E-02   2.468944501234704E-02   2.500000000000001E-02
   2.531446128851587E-02   2.563287801311073E-02   2.595529992704564E-02
   2.628177740940061E-02   2.661236147294650E-02   2.694710377211580E-02
   2.728605661107381E-02   2.762927295189120E-02   2.797680642281952E-02
   2.832871132667067E-02   2.868504264930182E-02   2.904585606820709E-02
   2.941120796121727E-02   2.978115541530896E-02   3.015575623552453E-02
   3.053506895400426E-02   3.091915283913213E-02   3.130806790479662E-02
   3.170187491976800E-02   3.210063541719355E-02   3.250441170421229E-02
   3.291326687169056E-02   3.332726480408008E-02   3.374647018940009E-02
   3.417094852934492E-02   3.460076614951880E-02   3.503599020979935E-02
   3.547668871483144E-02   3.592293052465313E-02   3.637478536545505E-02
   3.683232384047540E-02   3.729561744103178E-02   3.776473855769183E-02
   3.823976049158449E-02   3.872075746585334E-02   3.920780463725423E-02
   3.970097810789860E-02   4.020035493714459E-02   4.070601315363777E-02
   4.121803176750322E-02   4.173649078269109E-02   4.226147120947731E-02
   4.279305507712163E-02   4.333132544668490E-02   4.387636642400748E-02
   4.442826317285098E-02   4.498710192820524E-02   4.555297000976274E-02
   4.612595583556252E-02   4.670614893580558E-02   4.729363996684426E-02
   4.788852072534742E-02   4.849088416264387E-02   4.910082439924619E-02
   4.971843673955732E-02   5.034381768676194E-02   5.097706495790540E-02
   5.161827749916218E-02   5.226755550129641E-02   5.292500041531689E-02
   5.359071496832900E-02   5.426480317958608E-02   5.494737037674256E-02
   5.563852321231172E-02   5.633836968033024E-02   5.704701913323261E-02
   5.776458229893763E-02   5.849117129814980E-02   5.922689966187853E-02
   5.997188234917748E-02   6.072623576510723E-02   6.149007777892377E-02
   6.226352774249579E-02   6.304670650895373E-02   6.383973645157320E-02
   6.464274148289618E-02   6.545584707409255E-02   6.627918027456520E-02
   6.711286973180178E-02   6.795704571147616E-02   6.881184011780264E-02
   6.967738651414629E-02   7.055382014389254E-02   7.144127795157913E-02
   7.233989860429405E-02   7.324982251334257E-02   7.417119185618672E-02
   7.510415059866087E-02   7.604884451746663E-02   7.700542122295082E-02
   7.797403018216983E-02   7.895482274224422E-02   7.994795215400693E-02
   8.095357359594905E-02   8.197184419846688E-02   8.300292306841373E-02
   8.404697131396076E-02   8.510415206977053E-02   8.617463052248690E-02
   8.725857393654607E-02   8.835615168031177E-02   8.946753525253950E-02
   9.059289830917359E-02   9.173241669048116E-02   9.288626844852764E-02
   9.405463387499780E-02   9.523769552936656E-02   9.643563826742441E-02
   9.764864927016134E-02   9.887691807301448E-02   1.001206365954832E-01
   1.013799991711169E-01   1.026552025778804E-01   1.039464460689002E-01
   1.052539314035991E-01   1.065778628792205E-01   1.079184473627512E-01
   1.092758943232440E-01   1.106504158645484E-01   1.120422267584517E-01
   1.134515444782376E-01   1.148785892326673E-01   1.163235840003868E-01
   1.177867545647686E-01   1.192683295491901E-01   1.207685404527570E-01
   1.222876216864752E-01   1.238258106098779E-01   1.253833475681140E-01
   1.269604759295021E-01   1.285574421235572E-01   1.301744956794963E-01
   1.318118892652274E-01   1.334698787268295E-01   1.351487231285292E-01
   1.368486847931800E-01   1.385700293432506E-01   1.403130257423290E-01
   1.420779463371487E-01   1.438650669001433E-01   1.456746666725369E-01
   1.475070284079755E-01   1.493624384167082E-01   1.512411866103237E-01
   1.531435665470497E-01   1.550698754776217E-01   1.570204143917292E-01
   1.589954880650459E-01   1.609954051068516E-01   1.630204780082529E-01
   1.650710231910107E-01   1.671473610569818E-01   1.692498160381820E-01
   1.713787166474796E-01   1.735343955299259E-01   1.757171895147324E-01
   1.779274396679000E-01   1.801654913455118E-01   1.824316942476959E-01
   1.847264024732663E-01   1.870499745750521E-01   1.894027736159212E-01
   1.917851672255108E-01   1.941975276576695E-01   1.966402318486224E-01
   1.991136614758694E-01   2.016182030178219E-01   2.041542478141914E-01
   2.067221921271369E-01   2.093224372031817E-01   2.119553893359095E-01
   2.146214599294474E-01   2.173210655627502E-01   2.200546280546903E-01
   2.228225745299685E-01   2.256253374858532E-01   2.284633548597582E-01
   2.313370700976725E-01   2.342469322234484E-01   2.371933959089632E-01
   2.401769215451627E-01   2.431979753139972E-01   2.462570292612647E-01
   2.493545613703682E-01   2.524910556370014E-01   2.556670021447751E-01
   2.588828971417924E-01   2.621392431181895E-01   2.654365488846503E-01
   2.687753296519090E-01   2.721561071112536E-01   2.755794095160401E-01
   2.790457717642343E-01   2.825557354819898E-01   2.861098491082782E-01
   2.897086679805849E-01   2.933527544216804E-01   2.970426778274852E-01
   3.007790147560385E-01   3.045623490175869E-01   3.083932717658066E-01
   3.122723815901703E-01   3.162002846094808E-01   3.201775945665760E-01
   3.242049329242285E-01   3.282829289622506E-01   3.324122198758197E-01
   3.365934508750424E-01   3.408272752857691E-01   3.451143546516776E-01
   3.494553588376410E-01   3.538509661343952E-01   3.583018633645234E-01
   3.628087459897731E-01   3.673723182197237E-01   3.719932931218211E-01
   3.766723927327948E-01   3.814103481714791E-01   3.862078997530506E-01
   3.910657971047045E-01   3.959847992827856E-01   4.009656748913919E-01
   4.060092022024711E-01   4.111161692774266E-01   4.162873740902538E-01
   4.215236246522260E-01   4.268257391381465E-01   4.321945460141913E-01
   4.376308841673572E-01   4.431356030365413E-01   4.487095627452662E-01
   4.543536342360767E-01   4.600686994066264E-01   4.658556512474754E-01
   4.717153939816223E-01   4.776488432057914E-01   4.836569260334954E-01
   4.897405812399001E-01   4.959007594085083E-01   5.021384230796919E-01
   5.084545469010905E-01   5.148501177799009E-01   5.213261350370855E-01
   5.278836105635156E-01   5.345235689780838E-01   5.412470477878017E-01
   5.480550975499118E-01   5.549487820360411E-01   5.619291783984156E-01
   5.689973773381685E-01   5.761544832757648E-01   5.834016145235681E-01
   5.907399034605807E-01   5.981704967093788E-01   6.056945553152747E-01
   6.133132549277340E-01   6.210277859840712E-01   6.288393538954594E-01
   6.367491792352774E-01   6.447584979298269E-01   6.528685614514494E-01
   6.610806370140700E-01   6.693960077712033E-01   6.778159730164477E-01
   6.863418483865028E-01   6.949749660667420E-01   7.037166749993664E-01
   7.125683410941823E-01   7.215313474420258E-01   7.306070945308738E-01
   7.397970004646742E-01   7.491025011849256E-01   7.585250506950484E-01
   7.680661212875733E-01   7.777272037741919E-01   7.875098077186988E-01
   7.974154616728628E-01   8.074457134152674E-01   8.176021301931543E-01
   8.278862989673081E-01   8.382998266600238E-01   8.488443404061892E-01
   8.595214878075300E-01   8.703329371900512E-01   8.812803778647140E-01
   8.923655203913974E-01   9.035900968461738E-01   9.149558610919503E-01
   9.264645890525148E-01   9.381180789900254E-01   9.499181517859945E-01
   9.618666512258038E-01   9.739654442867997E-01   9.862164214300139E-01
   9.986214968955489E-01   1.011182609001685E+00   1.023901720447746E+00
   1.036780818620769E+00   1.049821915906050E+00   1.063027050001570E+00
   1.076398284236399E+00   1.089937707893088E+00   1.103647436534131E+00
   1.117529612332521E+00   1.131586404406470E+00   1.145820009158337E+00
   1.160232650617825E+00   1.174826580789483E+00   1.189604080004593E+00
   1.204567457277471E+00   1.219719050666261E+00   1.235061227638255E+00
   1.250596385439819E+00   1.266326951470967E+00   1.282255383664643E+00
   1.298384170870787E+00   1.314715833245212E+00   1.331252922643391E+00
   1.347998023019189E+00   1.364953750828607E+00   1.382122755438611E+00
   1.399507719541104E+00   1.417111359572095E+00   1.434936426136156E+00
   1.452985704436201E+00   1.471262014708685E+00   1.489768212664275E+00
   1.508507189934050E+00   1.527481874521334E+00   1.546695231259199E+00
   1.566150262273722E+00   1.585850007453084E+00   1.605797544922547E+00
   1.625995991525425E+00   1.646448503310094E+00   1.667158276023130E+00
   1.688128545608654E+00   1.709362588713954E+00   1.730863723201466E+00
   1.752635308667198E+00   1.774680746965673E+00   1.797003482741477E+00
   1.819607003967492E+00   1.842494842489896E+00   1.865670574580025E+00
   1.889137821493167E+00   1.912900250034397E+00   1.936961573131522E+00
   1.961325550415229E+00   1.985995988806535E+00   2.010976743111633E+00
   2.036271716624204E+00   2.061884861735326E+00   2.087820180551032E+00
   2.114081725517652E+00   2.140673600055016E+00   2.167599959197623E+00
   2.194865010243871E+00   2.222473013413458E+00   2.250428282513047E+00
   2.278735185610311E+00   2.307398145716447E+00   2.336421641477291E+00
   2.365810207873104E+00   2.395568436927174E+00   2.425700978423336E+00
   2.456212540632502E+00   2.487107891048347E+00   2.518391857132228E+00
   2.550069327067495E+00   2.582145250523271E+00   2.614624639427856E+00
   2.647512568751848E+00   2.680814177301114E+00   2.714534668519742E+00
   2.748679311303090E+00   2.783253440821059E+00   2.818262459351731E+00
   2.853711837125476E+00   2.889607113179694E+00   2.925953896224298E+00
   2.962757865518083E+00   3.000024771756137E+00   3.037760437968374E+00
   3.075970760429416E+00   3.114661709579886E+00   3.153839330959304E+00
   3.193509746150723E+00   3.233679153737224E+00   3.274353830270468E+00
   3.315540131251416E+00   3.357244492123388E+00   3.399473429277625E+00
   3.442233541071468E+00   3.485531508859383E+00   3.529374098036925E+00
   3.573768159097850E+00   3.618720628704525E+00   3.664238530771780E+00
   3.710328977564418E+00   3.756999170808525E+00   3.804256402816740E+00
   3.852108057627719E+00   3.900561612159878E+00   3.949624637379690E+00
   3.999304799484667E+00   4.049609861101208E+00   4.100547682497546E+00
   4.152126222811903E+00   4.204353541296140E+00   4.257237798575028E+00
   4.310787257921358E+00   4.365010286547108E+00   4.419915356910812E+00
   4.475511048041421E+00   4.531806046878784E+00   4.588809149631000E+00
   4.646529263148854E+00   4.704975406317512E+00   4.764156711465754E+00
   4.824082425792914E+00   4.884761912813774E+00   4.946204653821639E+00
   5.008420249369796E+00   5.071418420771627E+00   5.135209011619584E+00
   5.199801989323266E+00   5.265207446666864E+00   5.331435603386152E+00
   5.398496807765357E+00   5.466401538254105E+00   5.535160405104679E+00
   5.604784152029927E+00   5.675283657881953E+00   5.746669938351976E+00
   5.818954147691557E+00   5.892147580455465E+00   5.966261673266492E+00
   6.041308006602419E+00   6.117298306605515E+00   6.194244446914758E+00
   6.272158450521115E+00   6.351052491646176E+00   6.430938897644374E+00
   6.511830150929176E+00   6.593738890923481E+00   6.676677916034554E+00
   6.760660185653819E+00   6.845698822181764E+00   6.931807113078355E+00
   7.018998512939238E+00   7.107286645598023E+00   7.196685306255077E+00
   7.287208463633005E+00   7.378870262159313E+00   7.471685024176514E+00
   7.565667252179996E+00   7.660831631084108E+00   7.757193030516660E+00
   7.854766507142362E+00   7.953567307015452E+00   8.053610867961913E+00
   8.154912821991701E+00   8.257488997741223E+00   8.361355422946634E+00
   8.466528326948190E+00   8.573024143226110E+00   8.680859511968368E+00
   8.790051282670721E+00   8.900616516769485E+00   9.012572490307443E+00
   9.125936696633222E+00   9.240726849134722E+00   9.356960884006805E+00
   9.474656963053897E+00   9.593833476527806E+00   9.714509046001220E+00
   9.836702527277403E+00   9.960433013336399E+00   1.008571983731839E+01
   1.021258257554451E+01   1.034104105057572E+01   1.047111533431010E+01
   1.060282575111911E+01   1.073619288102336E+01   1.087123756290822E+01
   1.100798089777997E+01   1.114644425206293E+01   1.128664926093789E+01
   1.142861783172273E+01   1.157237214729549E+01   1.171793466956042E+01
   1.186532814295781E+01   1.201457559801773E+01   1.216570035495869E+01
   1.231872602733142E+01   1.247367652570855E+01   1.263057606142073E+01
   1.278944915033961E+01   1.295032061670856E+01   1.311321559702151E+01
   1.327815954395053E+01   1.344517823032292E+01   1.361429775314824E+01
   1.378554453769598E+01   1.395894534162465E+01   1.413452725916263E+01
   1.431231772534179E+01   1.449234452028416E+01   1.467463577354274E+01
   1.485921996849671E+01   1.504612594680206E+01   1.523538291289819E+01
   1.542702043857109E+01   1.562106846757404E+01   1.581755732030635E+01
   1.601651769855102E+01   1.621798069027196E+01   1.642197777447149E+01
   1.662854082610906E+01   1.683770212108174E+01   1.704949434126739E+01
   1.726395057963135E+01   1.748110434539715E+01   1.770098956928250E+01
   1.792364060880100E+01   1.814909225363053E+01   1.837737973104933E+01
   1.860853871144018E+01   1.884260531386405E+01   1.907961611170379E+01
   1.931960813837875E+01   1.956261889313139E+01   1.980868634688655E+01
   2.005784894818449E+01   2.031014562918860E+01   2.056561581176856E+01
   2.082429941366020E+01   2.108623685470259E+01   2.135146906315381E+01
   2.162003748208604E+01   2.189198407586115E+01   2.216735133668771E+01
   2.244618229126046E+01   2.272852050748333E+01   2.301441010127703E+01
   2.330389574347221E+01   2.359702266678947E+01   2.389383667290694E+01
   2.419438413961694E+01   2.449871202807261E+01   2.480686789012566E+01
   2.511889987575653E+01   2.543485674059778E+01   2.575478785355237E+01
   2.607874320450760E+01   2.640677341214613E+01   2.673892973185533E+01
   2.707526406373590E+01   2.741582896071149E+01   2.776067763674013E+01
   2.810986397512901E+01   2.846344253695400E+01   2.882146856958472E+01
   2.918399801531715E+01   2.955108752011480E+01   2.992279444245959E+01